
                                 *****************
                                 * O   R   C   A *
                                 *****************

                                            #,                                       
                                            ###                                      
                                            ####                                     
                                            #####                                    
                                            ######                                   
                                           ########,                                 
                                     ,,################,,,,,                         
                               ,,#################################,,                 
                          ,,##########################################,,             
                       ,#########################################, ''#####,          
                    ,#############################################,,   '####,        
                  ,##################################################,,,,####,       
                ,###########''''           ''''###############################       
              ,#####''   ,,,,##########,,,,          '''####'''          '####       
            ,##' ,,,,###########################,,,                        '##       
           ' ,,###''''                  '''############,,,                           
         ,,##''                                '''############,,,,        ,,,,,,###''
      ,#''                                            '''#######################'''  
     '                                                          ''''####''''         
             ,#######,   #######,   ,#######,      ##                                
            ,#'     '#,  ##    ##  ,#'     '#,    #''#        ######   ,####,        
            ##       ##  ##   ,#'  ##            #'  '#       #        #'  '#        
            ##       ##  #######   ##           ,######,      #####,   #    #        
            '#,     ,#'  ##    ##  '#,     ,#' ,#      #,         ##   #,  ,#        
             '#######'   ##     ##  '#######'  #'      '#     #####' # '####'        



                  #######################################################
                  #                        -***-                        #
                  #          Department of theory and spectroscopy      #
                  #    Directorship and core code : Frank Neese         #
                  #        Max Planck Institute fuer Kohlenforschung    #
                  #                Kaiser Wilhelm Platz 1               #
                  #                 D-45470 Muelheim/Ruhr               #
                  #                      Germany                        #
                  #                                                     #
                  #                  All rights reserved                #
                  #                        -***-                        #
                  #######################################################



                         Program Version 5.0.4 -  RELEASE  -

 With contributions from (in alphabetic order):
   Daniel Aravena         : Magnetic Suceptibility
   Michael Atanasov       : Ab Initio Ligand Field Theory (pilot matlab implementation)
   Alexander A. Auer      : GIAO ZORA, VPT2 properties, NMR spectrum
   Ute Becker             : Parallelization
   Giovanni Bistoni       : ED, misc. LED, open-shell LED, HFLD
   Martin Brehm           : Molecular dynamics
   Dmytro Bykov           : SCF Hessian
   Vijay G. Chilkuri      : MRCI spin determinant printing, contributions to CSF-ICE
   Dipayan Datta          : RHF DLPNO-CCSD density
   Achintya Kumar Dutta   : EOM-CC, STEOM-CC
   Dmitry Ganyushin       : Spin-Orbit,Spin-Spin,Magnetic field MRCI
   Miquel Garcia          : C-PCM and meta-GGA Hessian, CC/C-PCM, Gaussian charge scheme
   Yang Guo               : DLPNO-NEVPT2, F12-NEVPT2, CIM, IAO-localization
   Andreas Hansen         : Spin unrestricted coupled pair/coupled cluster methods
   Benjamin Helmich-Paris : MC-RPA, TRAH-SCF, COSX integrals
   Lee Huntington         : MR-EOM, pCC
   Robert Izsak           : Overlap fitted RIJCOSX, COSX-SCS-MP3, EOM
   Marcus Kettner         : VPT2
   Christian Kollmar      : KDIIS, OOCD, Brueckner-CCSD(T), CCSD density, CASPT2, CASPT2-K
   Simone Kossmann        : Meta GGA functionals, TD-DFT gradient, OOMP2, MP2 Hessian
   Martin Krupicka        : Initial AUTO-CI
   Lucas Lang             : DCDCAS
   Marvin Lechner         : AUTO-CI (C++ implementation), FIC-MRCC
   Dagmar Lenk            : GEPOL surface, SMD
   Dimitrios Liakos       : Extrapolation schemes; Compound Job, initial MDCI parallelization
   Dimitrios Manganas     : Further ROCIS development; embedding schemes
   Dimitrios Pantazis     : SARC Basis sets
   Anastasios Papadopoulos: AUTO-CI, single reference methods and gradients
   Taras Petrenko         : DFT Hessian,TD-DFT gradient, ASA, ECA, R-Raman, ABS, FL, XAS/XES, NRVS
   Peter Pinski           : DLPNO-MP2, DLPNO-MP2 Gradient
   Christoph Reimann      : Effective Core Potentials
   Marius Retegan         : Local ZFS, SOC
   Christoph Riplinger    : Optimizer, TS searches, QM/MM, DLPNO-CCSD(T), (RO)-DLPNO pert. Triples
   Tobias Risthaus        : Range-separated hybrids, TD-DFT gradient, RPA, STAB
   Michael Roemelt        : Original ROCIS implementation
   Masaaki Saitow         : Open-shell DLPNO-CCSD energy and density
   Barbara Sandhoefer     : DKH picture change effects
   Avijit Sen             : IP-ROCIS
   Kantharuban Sivalingam : CASSCF convergence, NEVPT2, FIC-MRCI
   Bernardo de Souza      : ESD, SOC TD-DFT
   Georgi Stoychev        : AutoAux, RI-MP2 NMR, DLPNO-MP2 response
   Willem Van den Heuvel  : Paramagnetic NMR
   Boris Wezisla          : Elementary symmetry handling
   Frank Wennmohs         : Technical directorship


 We gratefully acknowledge several colleagues who have allowed us to
 interface, adapt or use parts of their codes:
   Stefan Grimme, W. Hujo, H. Kruse, P. Pracht,  : VdW corrections, initial TS optimization,
                  C. Bannwarth, S. Ehlert          DFT functionals, gCP, sTDA/sTD-DF
   Ed Valeev, F. Pavosevic, A. Kumar             : LibInt (2-el integral package), F12 methods
   Garnet Chan, S. Sharma, J. Yang, R. Olivares  : DMRG
   Ulf Ekstrom                                   : XCFun DFT Library
   Mihaly Kallay                                 : mrcc  (arbitrary order and MRCC methods)
   Jiri Pittner, Ondrej Demel                    : Mk-CCSD
   Frank Weinhold                                : gennbo (NPA and NBO analysis)
   Christopher J. Cramer and Donald G. Truhlar   : smd solvation model
   Lars Goerigk                                  : TD-DFT with DH, B97 family of functionals
   V. Asgeirsson, H. Jonsson                     : NEB implementation
   FAccTs GmbH                                   : IRC, NEB, NEB-TS, DLPNO-Multilevel, CI-OPT
                                                   MM, QMMM, 2- and 3-layer-ONIOM, Crystal-QMMM,
                                                   LR-CPCM, SF, NACMEs, symmetry and pop. for TD-DFT,
                                                   nearIR, NL-DFT gradient (VV10), updates on ESD,
                                                   ML-optimized integration grids
   S Lehtola, MJT Oliveira, MAL Marques          : LibXC Library
   Liviu Ungur et al                             : ANISO software


 Your calculation uses the libint2 library for the computation of 2-el integrals
 For citations please refer to: http://libint.valeyev.net

 Your ORCA version has been built with support for libXC version: 5.1.0
 For citations please refer to: https://tddft.org/programs/libxc/

 This ORCA versions uses:
   CBLAS   interface :  Fast vector & matrix operations
   LAPACKE interface :  Fast linear algebra routines
   Shared memory     :  Shared parallel matrices


================================================================================

----- Orbital basis set information -----
Your calculation utilizes the basis: def2-TZVPP
   F. Weigend and R. Ahlrichs, Phys. Chem. Chem. Phys. 7, 3297 (2005).

================================================================================
                                        WARNINGS
                       Please study these warnings very carefully!
================================================================================


WARNING: The frozen-core approximation for MP2-gradient calculations is turned on by default.

WARNING: Geometry Optimization
  ===> : Switching off AutoStart
         For restart on a previous wavefunction, please use MOREAD

WARNING: Post HF methods need fully converged wavefunctions
  ===> : Setting SCFConvForced true
         You can overwrite this default with %scf ConvForced false 


INFO   : the flag for use of the SHARK integral package has been found!

================================================================================
                                       INPUT FILE
================================================================================
NAME = hydrogen-molecule-MP2-def2-TVZPP.inp
|  1> # avogadro generated ORCA input file 
|  2> # Basic Mode
|  3> # Molecular orbital of H2
|  4> ! MP2 OPT def2-TZVPP
|  5> ! Normalprint
|  6> %output
|  7> Print[P_Basis]2
|  8> Print[P_MOs]1
|  9> end
| 10> 
| 11> * xyz 0 1
| 12>    H        1.07079       -0.03266        0.05724
| 13>    H        1.77879       -0.03266        0.05724
| 14> *
| 15> 
| 16> 
| 17>                          ****END OF INPUT****
================================================================================

                       *****************************
                       * Geometry Optimization Run *
                       *****************************

Geometry optimization settings:
Update method            Update   .... BFGS
Choice of coordinates    CoordSys .... Z-matrix Internals
Initial Hessian          InHess   .... Almoef's Model

Convergence Tolerances:
Energy Change            TolE     ....  5.0000e-06 Eh
Max. Gradient            TolMAXG  ....  3.0000e-04 Eh/bohr
RMS Gradient             TolRMSG  ....  1.0000e-04 Eh/bohr
Max. Displacement        TolMAXD  ....  4.0000e-03 bohr
RMS Displacement         TolRMSD  ....  2.0000e-03 bohr
Strict Convergence                ....  False
------------------------------------------------------------------------------
                        ORCA OPTIMIZATION COORDINATE SETUP
------------------------------------------------------------------------------

The optimization will be done in new redundant internal coordinates
Making redundant internal coordinates   ...  (new redundants) done
Evaluating the initial hessian          ...  (Almloef) done
Evaluating the coordinates              ...  done
Calculating the B-matrix                .... done
Calculating the G-matrix                .... done
Diagonalizing the G-matrix              .... done
The first mode is                       ....    0
The number of degrees of freedom        ....    1

    -----------------------------------------------------------------
                    Redundant Internal Coordinates


    -----------------------------------------------------------------
         Definition                    Initial Value    Approx d2E/dq
    -----------------------------------------------------------------
      1. B(H   1,H   0)                  0.7080         0.280500   
    -----------------------------------------------------------------

Number of atoms                         .... 2
Number of degrees of freedom            .... 1

         *************************************************************
         *                GEOMETRY OPTIMIZATION CYCLE   1            *
         *************************************************************
---------------------------------
CARTESIAN COORDINATES (ANGSTROEM)
---------------------------------
  H      1.070790   -0.032660    0.057240
  H      1.778790   -0.032660    0.057240

----------------------------
CARTESIAN COORDINATES (A.U.)
----------------------------
  NO LB      ZA    FRAG     MASS         X           Y           Z
   0 H     1.0000    0     1.008    2.023500   -0.061718    0.108168
   1 H     1.0000    0     1.008    3.361426   -0.061718    0.108168

--------------------------------
INTERNAL COORDINATES (ANGSTROEM)
--------------------------------
 H      0   0   0     0.000000000000     0.00000000     0.00000000
 H      1   0   0     0.708000000000     0.00000000     0.00000000

---------------------------
INTERNAL COORDINATES (A.U.)
---------------------------
 H      0   0   0     0.000000000000     0.00000000     0.00000000
 H      1   0   0     1.337926102816     0.00000000     0.00000000

---------------------
BASIS SET INFORMATION
---------------------
There are 1 groups of distinct atoms

 Group   1 Type H   : 5s2p1d contracted to 3s2p1d pattern {311/11/1}

Atom   0H    basis set group =>   1
Atom   1H    basis set group =>   1

-------------------------
BASIS SET IN INPUT FORMAT
-------------------------

 # Basis set for element : H 
 NewGTO H 
 S 3 
   1      34.0613410000      0.0254393072
   2       5.1235746000      0.1900859489
   3       1.1646626000      0.8524411301
 S 1 
   1       0.3272304100      1.0000000000
 S 1 
   1       0.1030724100      1.0000000000
 P 1 
   1       1.4070000000      1.0000000000
 P 1 
   1       0.3880000000      1.0000000000
 D 1 
   1       1.0570000000      1.0000000000
  end;

------------------------------------------------------------------------------
                           ORCA GTO INTEGRAL CALCULATION
------------------------------------------------------------------------------
------------------------------------------------------------------------------
                   ___                                                        
                  /   \      - P O W E R E D   B Y -                         
                 /     \                                                     
                 |  |  |   _    _      __       _____    __    __             
                 |  |  |  | |  | |    /  \     |  _  \  |  |  /  |          
                  \  \/   | |  | |   /    \    | | | |  |  | /  /          
                 / \  \   | |__| |  /  /\  \   | |_| |  |  |/  /          
                |  |  |   |  __  | /  /__\  \  |    /   |      \           
                |  |  |   | |  | | |   __   |  |    \   |  |\   \          
                \     /   | |  | | |  |  |  |  | |\  \  |  | \   \       
                 \___/    |_|  |_| |__|  |__|  |_| \__\ |__|  \__/        
                                                                              
                      - O R C A' S   B I G   F R I E N D -                    
                                      &                                       
                       - I N T E G R A L  F E E D E R -                       
                                                                              
 v1 FN, 2020, v2 2021                                                         
------------------------------------------------------------------------------


Reading SHARK input file hydrogen-molecule-MP2-def2-TVZPP.SHARKINP.tmp ... SHARK General Contraction Test:  Segmented basis detected
   -> Pre-screening matrix *NOT* found on disk - recalculating with NShells=12
   -> Leaving CheckPreScreeningMatrix
ok
----------------------
SHARK INTEGRAL PACKAGE
----------------------

Number of atoms                             ...      2
Number of basis functions                   ...     28
Number of shells                            ...     12
Maximum angular momentum                    ...      2
Integral batch strategy                     ... SHARK/LIBINT Hybrid
RI-J (if used) integral strategy            ... SPLIT-RIJ (Revised 2003 algorithm where possible)
Printlevel                                  ...      2
Contraction scheme used                     ... SEGMENTED contraction
Coulomb Range Separation                    ... NOT USED
Exchange Range Separation                   ... NOT USED
Finite Nucleus Model                        ... NOT USED
Auxiliary Coulomb fitting basis             ... NOT available
Auxiliary J/K fitting basis                 ... NOT available
Auxiliary Correlation fitting basis         ... NOT available
Auxiliary 'external' fitting basis          ... NOT available
Integral threshold                          ...     2.500000e-11
Primitive cut-off                           ...     2.500000e-12
Primitive pair pre-selection threshold      ...     2.500000e-12

Calculating pre-screening integrals         ... done (  0.0 sec) Dimension = 12
Organizing shell pair data                  ... done (  0.0 sec)
Shell pair information
Total number of shell pairs                 ...        78
Shell pairs after pre-screening             ...        78
Total number of primitive shell pairs       ...       142
Primitive shell pairs kept                  ...       141
          la=0 lb=0:     21 shell pairs
          la=1 lb=0:     24 shell pairs
          la=1 lb=1:     10 shell pairs
          la=2 lb=0:     12 shell pairs
          la=2 lb=1:      8 shell pairs
          la=2 lb=2:      3 shell pairs

Calculating one electron integrals          ... done (  0.0 sec)
Calculating Nuclear repulsion               ... done (  0.0 sec) ENN=      0.747425435452 Eh

SHARK setup successfully completed in   0.0 seconds

Maximum memory used throughout the entire GTOINT-calculation: 6.0 MB
-------------------------------------------------------------------------------
                                 ORCA SCF
-------------------------------------------------------------------------------

------------
SCF SETTINGS
------------
Hamiltonian:
 Ab initio Hamiltonian  Method          .... Hartree-Fock(GTOs)


General Settings:
 Integral files         IntName         .... hydrogen-molecule-MP2-def2-TVZPP
 Hartree-Fock type      HFTyp           .... RHF
 Total Charge           Charge          ....    0
 Multiplicity           Mult            ....    1
 Number of Electrons    NEL             ....    2
 Basis Dimension        Dim             ....   28
 Nuclear Repulsion      ENuc            ....      0.7474254355 Eh

Convergence Acceleration:
 DIIS                   CNVDIIS         .... on
   Start iteration      DIISMaxIt       ....    12
   Startup error        DIISStart       ....  0.200000
   # of expansion vecs  DIISMaxEq       ....     5
   Bias factor          DIISBfac        ....   1.050
   Max. coefficient     DIISMaxC        ....  10.000
 Trust-Rad. Augm. Hess. CNVTRAH         .... auto
   Auto Start mean grad. ratio tolernc. ....  1.125000
   Auto Start start iteration           ....    20
   Auto Start num. interpolation iter.  ....    10
   Max. Number of Micro iterations      ....    16
   Max. Number of Macro iterations      .... Maxiter - #DIIS iter
   Number of Davidson start vectors     ....     2
   Converg. threshold I  (grad. norm)   ....   1.000e-05
   Converg. threshold II (energy diff.) ....   1.000e-08
   Grad. Scal. Fac. for Micro threshold ....   0.100
   Minimum threshold for Micro iter.    ....   0.010
   NR start threshold (gradient norm)   ....   0.001
   Initial trust radius                 ....   0.400
   Minimum AH scaling param. (alpha)    ....   1.000
   Maximum AH scaling param. (alpha)    .... 1000.000
   Orbital update algorithm             .... Taylor
   White noise on init. David. guess    .... on
   Maximum white noise                  ....   0.010
   Quad. conv. algorithm                .... NR
 SOSCF                  CNVSOSCF        .... on
   Start iteration      SOSCFMaxIt      ....   150
   Startup grad/error   SOSCFStart      ....  0.003300
 Level Shifting         CNVShift        .... on
   Level shift para.    LevelShift      ....    0.2500
   Turn off err/grad.   ShiftErr        ....    0.0010
 Zerner damping         CNVZerner       .... off
 Static damping         CNVDamp         .... on
   Fraction old density DampFac         ....    0.7000
   Max. Damping (<1)    DampMax         ....    0.9800
   Min. Damping (>=0)   DampMin         ....    0.0000
   Turn off err/grad.   DampErr         ....    0.1000
 Fernandez-Rico         CNVRico         .... off

SCF Procedure:
 Maximum # iterations   MaxIter         ....   125
 SCF integral mode      SCFMode         .... Direct
   Integral package                     .... SHARK and LIBINT hybrid scheme
 Reset frequency        DirectResetFreq ....    20
 Integral Threshold     Thresh          ....  2.500e-11 Eh
 Primitive CutOff       TCut            ....  2.500e-12 Eh

Convergence Tolerance:
 Convergence Check Mode ConvCheckMode   .... Total+1el-Energy
 Convergence forced     ConvForced      .... 1
 Energy Change          TolE            ....  1.000e-08 Eh
 1-El. energy change                    ....  1.000e-05 Eh
 Orbital Gradient       TolG            ....  1.000e-05
 Orbital Rotation angle TolX            ....  1.000e-05
 DIIS Error             TolErr          ....  5.000e-07


Diagonalization of the overlap matrix:
Smallest eigenvalue                        ... 1.300e-03
Time for diagonalization                   ...    0.003 sec
Threshold for overlap eigenvalues          ... 1.000e-08
Number of eigenvalues below threshold      ... 0
Time for construction of square roots      ...    0.001 sec
Total time needed                          ...    0.004 sec

SHARK General Contraction Test:  Segmented basis detected
   -> Pre-screening matrix found on disk - Trying to read with NShells=12
   -> Passing Pre-screening matrix on to SHARK ...ok
   -> Leaving CheckPreScreeningMatrix
----------------------
SHARK INTEGRAL PACKAGE
----------------------

Number of atoms                             ...      2
Number of basis functions                   ...     28
Number of shells                            ...     12
Maximum angular momentum                    ...      2
Integral batch strategy                     ... SHARK/LIBINT Hybrid
RI-J (if used) integral strategy            ... SPLIT-RIJ (Revised 2003 algorithm where possible)
Printlevel                                  ...      2
Contraction scheme used                     ... SEGMENTED contraction
Coulomb Range Separation                    ... NOT USED
Exchange Range Separation                   ... NOT USED
Finite Nucleus Model                        ... NOT USED
Auxiliary Coulomb fitting basis             ... NOT available
Auxiliary J/K fitting basis                 ... NOT available
Auxiliary Correlation fitting basis         ... NOT available
Auxiliary 'external' fitting basis          ... NOT available
Integral threshold                          ...     2.500000e-11
Primitive cut-off                           ...     2.500000e-12
Primitive pair pre-selection threshold      ...     2.500000e-12

Time for model grid setup =    0.004 sec

------------------------------
INITIAL GUESS: MODEL POTENTIAL
------------------------------
Loading Hartree-Fock densities                     ... done
Calculating cut-offs                               ... done
Initializing the effective Hamiltonian             ... done
Setting up the integral package (SHARK)            ... done
Starting the Coulomb interaction                   ...     -> Generating integrals - 
    -> L=0 0 :     0.000 sec done=       210 skipped=         0 prim-skipped=         0
    -> L=1 0 :     0.000 sec done=       240 skipped=         0 prim-skipped=         0
    -> L=1 1 :     0.000 sec done=       100 skipped=         0 prim-skipped=         0
    -> L=2 0 :     0.000 sec done=       120 skipped=         0 prim-skipped=         0
    -> L=2 1 :     0.000 sec done=        80 skipped=         0 prim-skipped=         0
    -> L=2 2 :     0.000 sec done=        30 skipped=         0 prim-skipped=         0
done (   0.0 sec)
Reading the grid                                   ... done
Mapping shells                                     ... done
Starting the XC term evaluation                    ... done (   0.0 sec)
Transforming the Hamiltonian                       ... done (   0.0 sec)
Diagonalizing the Hamiltonian                      ... done (   0.0 sec)
Back transforming the eigenvectors                 ... done (   0.0 sec)
Now organizing SCF variables                       ... done
                      ------------------
                      INITIAL GUESS DONE (   0.0 sec)
                      ------------------
--------------
SCF ITERATIONS
--------------
               ***  Starting incremental Fock matrix formation  ***
===> SHARK/Fock/General/Sym: HFTyp=1 DoJ=1 DoX=1 facj= 2.000 facx=-0.500 NFock=1 NumOp=1 NMat=1 RangeSep=0 GeneralContraction=0 PGCOpt=-1
    -> L=0 0 0 0:     0.000 sec done=       231 (=100.0%) skipped=         0 
    -> L=1 0 0 0:     0.000 sec done=       504 (=100.0%) skipped=         0 
    -> L=1 0 1 0:     0.000 sec done=       300 (=100.0%) skipped=         0 
    -> L=1 1 0 0:     0.000 sec done=       210 (=100.0%) skipped=         0 
    -> L=1 1 1 0:     0.000 sec done=       240 (=100.0%) skipped=         0 
    -> L=1 1 1 1:     0.000 sec done=        55 (=100.0%) skipped=         0 
    -> L=2 0 0 0:     0.000 sec done=       252 (=100.0%) skipped=         0 
    -> RHF LowL loop time =     0.000 sec
    -> L=2 0 1 0:     0.002 sec done=       288 (=100.0%) skipped=         0 
    -> L=2 0 1 1:     0.000 sec done=       120 (=100.0%) skipped=         0 
    -> L=2 0 2 0:     0.001 sec done=        78 (=100.0%) skipped=         0 
    -> L=2 1 0 0:     0.000 sec done=       168 (=100.0%) skipped=         0 
    -> L=2 1 1 0:     0.001 sec done=       192 (=100.0%) skipped=         0 
    -> L=2 1 2 0:     0.001 sec done=        96 (=100.0%) skipped=         0 
    -> L=2 2 0 0:     0.001 sec done=        63 (=100.0%) skipped=         0 
    ->Total SHARK integral loop time =    0.006 sec
    -> L=0 1 2 2:     0.001 sec done=        72 (=100.0%) skipped=         0 
    -> L=0 2 2 2:     0.001 sec done=        36 (=100.0%) skipped=         0 
    -> L=1 1 1 2:     0.001 sec done=        80 (=100.0%) skipped=         0 
    -> L=1 1 2 2:     0.000 sec done=        30 (=100.0%) skipped=         0 
    -> L=1 2 1 2:     0.001 sec done=        36 (=100.0%) skipped=         0 
    -> L=1 2 2 2:     0.000 sec done=        24 (=100.0%) skipped=         0 
    -> L=2 2 2 2:     0.001 sec done=         6 (=100.0%) skipped=         0 
    ->Total LIBINT loop time =    0.005 sec

                         ----------------------------
                         !        ITERATION     0   !
                         ----------------------------
   Total Energy        :      -1.129788641616 Eh
   Energy Change       :      -1.129788641616 Eh
   MAX-DP              :       0.003350476054
   RMS-DP              :       0.000300673841
   Actual Damping      :       0.7000
   Actual Level Shift  :       0.2500 Eh

===> SHARK/Fock/General/Sym: HFTyp=1 DoJ=1 DoX=1 facj= 2.000 facx=-0.500 NFock=1 NumOp=1 NMat=1 RangeSep=0 GeneralContraction=0 PGCOpt=-1
    -> L=0 0 0 0:     0.000 sec done=       231 (=100.0%) skipped=         0 
    -> L=1 0 0 0:     0.000 sec done=       504 (=100.0%) skipped=         0 
    -> L=1 0 1 0:     0.000 sec done=       300 (=100.0%) skipped=         0 
    -> L=1 1 0 0:     0.000 sec done=       210 (=100.0%) skipped=         0 
    -> L=1 1 1 0:     0.000 sec done=       240 (=100.0%) skipped=         0 
    -> L=1 1 1 1:     0.000 sec done=        55 (=100.0%) skipped=         0 
    -> L=2 0 0 0:     0.000 sec done=       252 (=100.0%) skipped=         0 
    -> RHF LowL loop time =     0.000 sec
    -> L=2 0 1 0:     0.001 sec done=       288 (=100.0%) skipped=         0 
    -> L=2 0 1 1:     0.000 sec done=       120 (=100.0%) skipped=         0 
    -> L=2 0 2 0:     0.000 sec done=        78 (=100.0%) skipped=         0 
    -> L=2 1 0 0:     0.000 sec done=       168 (=100.0%) skipped=         0 
    -> L=2 1 1 0:     0.000 sec done=       192 (=100.0%) skipped=         0 
    -> L=2 1 2 0:     0.000 sec done=        96 (=100.0%) skipped=         0 
    -> L=2 2 0 0:     0.000 sec done=        63 (=100.0%) skipped=         0 
    ->Total SHARK integral loop time =    0.001 sec
    -> L=0 1 2 2:     0.001 sec done=        72 (=100.0%) skipped=         0 
    -> L=0 2 2 2:     0.000 sec done=        36 (=100.0%) skipped=         0 
    -> L=1 1 1 2:     0.000 sec done=        80 (=100.0%) skipped=         0 
    -> L=1 1 2 2:     0.000 sec done=        30 (=100.0%) skipped=         0 
    -> L=1 2 1 2:     0.000 sec done=        36 (=100.0%) skipped=         0 
    -> L=1 2 2 2:     0.000 sec done=        24 (=100.0%) skipped=         0 
    -> L=2 2 2 2:     0.000 sec done=         6 (=100.0%) skipped=         0 
    ->Total LIBINT loop time =    0.001 sec

                         ----------------------------
                         !        ITERATION     1   !
                         ----------------------------
   Total Energy        :      -1.130483835933 Eh
   Energy Change       :      -0.000695194317 Eh
   MAX-DP              :       0.002711227588
   RMS-DP              :       0.000264648606
   Actual Damping      :       0.7000
   Actual Level Shift  :       0.2500 Eh

===> SHARK/Fock/General/Sym: HFTyp=1 DoJ=1 DoX=1 facj= 2.000 facx=-0.500 NFock=1 NumOp=1 NMat=1 RangeSep=0 GeneralContraction=0 PGCOpt=-1
    -> L=0 0 0 0:     0.000 sec done=       231 (=100.0%) skipped=         0 
    -> L=1 0 0 0:     0.001 sec done=       504 (=100.0%) skipped=         0 
    -> L=1 0 1 0:     0.000 sec done=       300 (=100.0%) skipped=         0 
    -> L=1 1 0 0:     0.000 sec done=       210 (=100.0%) skipped=         0 
    -> L=1 1 1 0:     0.000 sec done=       240 (=100.0%) skipped=         0 
    -> L=1 1 1 1:     0.000 sec done=        55 (=100.0%) skipped=         0 
    -> L=2 0 0 0:     0.000 sec done=       252 (=100.0%) skipped=         0 
    -> RHF LowL loop time =     0.001 sec
    -> L=2 0 1 0:     0.000 sec done=       288 (=100.0%) skipped=         0 
    -> L=2 0 1 1:     0.001 sec done=       120 (=100.0%) skipped=         0 
    -> L=2 0 2 0:     0.000 sec done=        78 (=100.0%) skipped=         0 
    -> L=2 1 0 0:     0.000 sec done=       168 (=100.0%) skipped=         0 
    -> L=2 1 1 0:     0.000 sec done=       192 (=100.0%) skipped=         0 
    -> L=2 1 2 0:     0.000 sec done=        96 (=100.0%) skipped=         0 
    -> L=2 2 0 0:     0.000 sec done=        63 (=100.0%) skipped=         0 
    ->Total SHARK integral loop time =    0.001 sec
    -> L=0 1 2 2:     0.000 sec done=        72 (=100.0%) skipped=         0 
    -> L=0 2 2 2:     0.001 sec done=        36 (=100.0%) skipped=         0 
    -> L=1 1 1 2:     0.000 sec done=        80 (=100.0%) skipped=         0 
    -> L=1 1 2 2:     0.000 sec done=        30 (=100.0%) skipped=         0 
    -> L=1 2 1 2:     0.000 sec done=        36 (=100.0%) skipped=         0 
    -> L=1 2 2 2:     0.000 sec done=        24 (=100.0%) skipped=         0 
    -> L=2 2 2 2:     0.000 sec done=         6 (=100.0%) skipped=         0 
    ->Total LIBINT loop time =    0.001 sec
                               ***Turning on DIIS***

                         ----------------------------
                         !        ITERATION     2   !
                         ----------------------------
   Total Energy        :      -1.131024274846 Eh
   Energy Change       :      -0.000540438913 Eh
   MAX-DP              :       0.006693059026
   RMS-DP              :       0.000692624627
   Actual Damping      :       0.0000
   Actual Level Shift  :       0.2500 Eh
   DIIS-Error          :       0.032275229014

===> SHARK/Fock/General/Sym: HFTyp=1 DoJ=1 DoX=1 facj= 2.000 facx=-0.500 NFock=1 NumOp=1 NMat=1 RangeSep=0 GeneralContraction=0 PGCOpt=-1
    -> L=0 0 0 0:     0.000 sec done=       231 (=100.0%) skipped=         0 
    -> L=1 0 0 0:     0.001 sec done=       504 (=100.0%) skipped=         0 
    -> L=1 0 1 0:     0.000 sec done=       300 (=100.0%) skipped=         0 
    -> L=1 1 0 0:     0.000 sec done=       210 (=100.0%) skipped=         0 
    -> L=1 1 1 0:     0.000 sec done=       240 (=100.0%) skipped=         0 
    -> L=1 1 1 1:     0.000 sec done=        55 (=100.0%) skipped=         0 
    -> L=2 0 0 0:     0.000 sec done=       252 (=100.0%) skipped=         0 
    -> RHF LowL loop time =     0.001 sec
    -> L=2 0 1 0:     0.000 sec done=       288 (=100.0%) skipped=         0 
    -> L=2 0 1 1:     0.000 sec done=       120 (=100.0%) skipped=         0 
    -> L=2 0 2 0:     0.001 sec done=        78 (=100.0%) skipped=         0 
    -> L=2 1 0 0:     0.000 sec done=       168 (=100.0%) skipped=         0 
    -> L=2 1 1 0:     0.000 sec done=       192 (=100.0%) skipped=         0 
    -> L=2 1 2 0:     0.000 sec done=        96 (=100.0%) skipped=         0 
    -> L=2 2 0 0:     0.000 sec done=        63 (=100.0%) skipped=         0 
    ->Total SHARK integral loop time =    0.001 sec
    -> L=0 1 2 2:     0.000 sec done=        72 (=100.0%) skipped=         0 
    -> L=0 2 2 2:     0.000 sec done=        36 (=100.0%) skipped=         0 
    -> L=1 1 1 2:     0.001 sec done=        80 (=100.0%) skipped=         0 
    -> L=1 1 2 2:     0.000 sec done=        30 (=100.0%) skipped=         0 
    -> L=1 2 1 2:     0.000 sec done=        36 (=100.0%) skipped=         0 
    -> L=1 2 2 2:     0.000 sec done=        24 (=100.0%) skipped=         0 
    -> L=2 2 2 2:     0.000 sec done=         6 (=100.0%) skipped=         0 
    ->Total LIBINT loop time =    0.001 sec

                         ----------------------------
                         !        ITERATION     3   !
                         ----------------------------
   Total Energy        :      -1.133289011870 Eh
   Energy Change       :      -0.002264737025 Eh
   MAX-DP              :       0.001257716917
   RMS-DP              :       0.000147317366
   Actual Damping      :       0.0000
   Actual Level Shift  :       0.2500 Eh
   DIIS-Error          :       0.005064120429
   DIIS coefficients:
     -0.14008   1.14008

===> SHARK/Fock/General/Sym: HFTyp=1 DoJ=1 DoX=1 facj= 2.000 facx=-0.500 NFock=1 NumOp=1 NMat=1 RangeSep=0 GeneralContraction=0 PGCOpt=-1
    -> L=0 0 0 0:     0.000 sec done=       231 (=100.0%) skipped=         0 
    -> L=1 0 0 0:     0.000 sec done=       504 (=100.0%) skipped=         0 
    -> L=1 0 1 0:     0.000 sec done=       300 (=100.0%) skipped=         0 
    -> L=1 1 0 0:     0.000 sec done=       210 (=100.0%) skipped=         0 
    -> L=1 1 1 0:     0.001 sec done=       240 (=100.0%) skipped=         0 
    -> L=1 1 1 1:     0.000 sec done=        55 (=100.0%) skipped=         0 
    -> L=2 0 0 0:     0.000 sec done=       252 (=100.0%) skipped=         0 
    -> RHF LowL loop time =     0.001 sec
    -> L=2 0 1 0:     0.000 sec done=       288 (=100.0%) skipped=         0 
    -> L=2 0 1 1:     0.000 sec done=       120 (=100.0%) skipped=         0 
    -> L=2 0 2 0:     0.000 sec done=        78 (=100.0%) skipped=         0 
    -> L=2 1 0 0:     0.000 sec done=       168 (=100.0%) skipped=         0 
    -> L=2 1 1 0:     0.001 sec done=       192 (=100.0%) skipped=         0 
    -> L=2 1 2 0:     0.000 sec done=        96 (=100.0%) skipped=         0 
    -> L=2 2 0 0:     0.000 sec done=        63 (=100.0%) skipped=         0 
    ->Total SHARK integral loop time =    0.001 sec
    -> L=0 1 2 2:     0.000 sec done=        72 (=100.0%) skipped=         0 
    -> L=0 2 2 2:     0.000 sec done=        36 (=100.0%) skipped=         0 
    -> L=1 1 1 2:     0.000 sec done=        80 (=100.0%) skipped=         0 
    -> L=1 1 2 2:     0.000 sec done=        30 (=100.0%) skipped=         0 
    -> L=1 2 1 2:     0.000 sec done=        36 (=100.0%) skipped=         0 
    -> L=1 2 2 2:     0.001 sec done=        24 (=100.0%) skipped=         0 
    -> L=2 2 2 2:     0.000 sec done=         6 (=100.0%) skipped=         0 
    ->Total LIBINT loop time =    0.001 sec
                      *** Initiating the SOSCF procedure ***
                           *** Shutting down DIIS ***
                      *** Re-Reading the Fockian *** 
                      *** Removing any level shift *** 

                         ----------------------------
                         !        ITERATION     4   !
                         ----------------------------
   Total Energy        :      -1.132671944677 Eh
   Energy Change       :       0.000617067194 Eh
   MAX-DP              :       0.000690561826
   RMS-DP              :       0.000058110360
   Orbital gradient    :       0.001003462510
   Orbital Rotation    :       0.001003462510
   Actual Damping      :       0.0000

               *** Restarting incremental Fock matrix formation ***
===> SHARK/Fock/General/Sym: HFTyp=1 DoJ=1 DoX=1 facj= 2.000 facx=-0.500 NFock=1 NumOp=1 NMat=1 RangeSep=0 GeneralContraction=0 PGCOpt=-1
    -> L=0 0 0 0:     0.000 sec done=       231 (=100.0%) skipped=         0 
    -> L=1 0 0 0:     0.000 sec done=       504 (=100.0%) skipped=         0 
    -> L=1 0 1 0:     0.000 sec done=       300 (=100.0%) skipped=         0 
    -> L=1 1 0 0:     0.000 sec done=       210 (=100.0%) skipped=         0 
    -> L=1 1 1 0:     0.000 sec done=       240 (=100.0%) skipped=         0 
    -> L=1 1 1 1:     0.000 sec done=        55 (=100.0%) skipped=         0 
    -> L=2 0 0 0:     0.000 sec done=       252 (=100.0%) skipped=         0 
    -> RHF LowL loop time =     0.001 sec
    -> L=2 0 1 0:     0.000 sec done=       288 (=100.0%) skipped=         0 
    -> L=2 0 1 1:     0.001 sec done=       120 (=100.0%) skipped=         0 
    -> L=2 0 2 0:     0.000 sec done=        78 (=100.0%) skipped=         0 
    -> L=2 1 0 0:     0.000 sec done=       168 (=100.0%) skipped=         0 
    -> L=2 1 1 0:     0.000 sec done=       192 (=100.0%) skipped=         0 
    -> L=2 1 2 0:     0.000 sec done=        96 (=100.0%) skipped=         0 
    -> L=2 2 0 0:     0.000 sec done=        63 (=100.0%) skipped=         0 
    ->Total SHARK integral loop time =    0.001 sec
    -> L=0 1 2 2:     0.000 sec done=        72 (=100.0%) skipped=         0 
    -> L=0 2 2 2:     0.001 sec done=        36 (=100.0%) skipped=         0 
    -> L=1 1 1 2:     0.000 sec done=        80 (=100.0%) skipped=         0 
    -> L=1 1 2 2:     0.000 sec done=        30 (=100.0%) skipped=         0 
    -> L=1 2 1 2:     0.000 sec done=        36 (=100.0%) skipped=         0 
    -> L=1 2 2 2:     0.000 sec done=        24 (=100.0%) skipped=         0 
    -> L=2 2 2 2:     0.000 sec done=         6 (=100.0%) skipped=         0 
    ->Total LIBINT loop time =    0.001 sec

                         ----------------------------
                         !        ITERATION     5   !
                         ----------------------------
   Total Energy        :      -1.132464806328 Eh
   Energy Change       :       0.000207138349 Eh
   MAX-DP              :       0.000280369901
   RMS-DP              :       0.000022422035
   Orbital gradient    :       0.000274072335
   Orbital Rotation    :       0.000301756738
   Actual Damping      :       0.0000

===> SHARK/Fock/General/Sym: HFTyp=1 DoJ=1 DoX=1 facj= 2.000 facx=-0.500 NFock=1 NumOp=1 NMat=1 RangeSep=0 GeneralContraction=0 PGCOpt=-1
    -> L=0 0 0 0:     0.000 sec done=       231 (=100.0%) skipped=         0 
    -> L=1 0 0 0:     0.000 sec done=       504 (=100.0%) skipped=         0 
    -> L=1 0 1 0:     0.000 sec done=       300 (=100.0%) skipped=         0 
    -> L=1 1 0 0:     0.000 sec done=       210 (=100.0%) skipped=         0 
    -> L=1 1 1 0:     0.000 sec done=       240 (=100.0%) skipped=         0 
    -> L=1 1 1 1:     0.000 sec done=        55 (=100.0%) skipped=         0 
    -> L=2 0 0 0:     0.000 sec done=       252 (=100.0%) skipped=         0 
    -> RHF LowL loop time =     0.000 sec
    -> L=2 0 1 0:     0.001 sec done=       288 (=100.0%) skipped=         0 
    -> L=2 0 1 1:     0.000 sec done=       120 (=100.0%) skipped=         0 
    -> L=2 0 2 0:     0.000 sec done=        78 (=100.0%) skipped=         0 
    -> L=2 1 0 0:     0.000 sec done=       168 (=100.0%) skipped=         0 
    -> L=2 1 1 0:     0.000 sec done=       192 (=100.0%) skipped=         0 
    -> L=2 1 2 0:     0.000 sec done=        96 (=100.0%) skipped=         0 
    -> L=2 2 0 0:     0.000 sec done=        63 (=100.0%) skipped=         0 
    ->Total SHARK integral loop time =    0.001 sec
    -> L=0 1 2 2:     0.000 sec done=        72 (=100.0%) skipped=         0 
    -> L=0 2 2 2:     0.000 sec done=        36 (=100.0%) skipped=         0 
    -> L=1 1 1 2:     0.000 sec done=        80 (=100.0%) skipped=         0 
    -> L=1 1 2 2:     0.000 sec done=        30 (=100.0%) skipped=         0 
    -> L=1 2 1 2:     0.000 sec done=        36 (=100.0%) skipped=         0 
    -> L=1 2 2 2:     0.000 sec done=        24 (=100.0%) skipped=         0 
    -> L=2 2 2 2:     0.000 sec done=         6 (=100.0%) skipped=         0 
    ->Total LIBINT loop time =    0.001 sec

                         ----------------------------
                         !        ITERATION     6   !
                         ----------------------------
   Total Energy        :      -1.132465013414 Eh
   Energy Change       :      -0.000000207086 Eh
   MAX-DP              :       0.000088342809
   RMS-DP              :       0.000006951612
   Orbital gradient    :       0.000061405277
   Orbital Rotation    :       0.000087880245
   Actual Damping      :       0.0000

===> SHARK/Fock/General/Sym: HFTyp=1 DoJ=1 DoX=1 facj= 2.000 facx=-0.500 NFock=1 NumOp=1 NMat=1 RangeSep=0 GeneralContraction=0 PGCOpt=-1
    -> L=0 0 0 0:     0.000 sec done=       231 (=100.0%) skipped=         0 
    -> L=1 0 0 0:     0.000 sec done=       504 (=100.0%) skipped=         0 
    -> L=1 0 1 0:     0.000 sec done=       300 (=100.0%) skipped=         0 
    -> L=1 1 0 0:     0.000 sec done=       210 (=100.0%) skipped=         0 
    -> L=1 1 1 0:     0.001 sec done=       240 (=100.0%) skipped=         0 
    -> L=1 1 1 1:     0.000 sec done=        55 (=100.0%) skipped=         0 
    -> L=2 0 0 0:     0.000 sec done=       252 (=100.0%) skipped=         0 
    -> RHF LowL loop time =     0.001 sec
    -> L=2 0 1 0:     0.000 sec done=       288 (=100.0%) skipped=         0 
    -> L=2 0 1 1:     0.000 sec done=       120 (=100.0%) skipped=         0 
    -> L=2 0 2 0:     0.000 sec done=        78 (=100.0%) skipped=         0 
    -> L=2 1 0 0:     0.000 sec done=       168 (=100.0%) skipped=         0 
    -> L=2 1 1 0:     0.001 sec done=       192 (=100.0%) skipped=         0 
    -> L=2 1 2 0:     0.000 sec done=        96 (=100.0%) skipped=         0 
    -> L=2 2 0 0:     0.000 sec done=        63 (=100.0%) skipped=         0 
    ->Total SHARK integral loop time =    0.001 sec
    -> L=0 1 2 2:     0.000 sec done=        72 (=100.0%) skipped=         0 
    -> L=0 2 2 2:     0.000 sec done=        36 (=100.0%) skipped=         0 
    -> L=1 1 1 2:     0.000 sec done=        80 (=100.0%) skipped=         0 
    -> L=1 1 2 2:     0.000 sec done=        30 (=100.0%) skipped=         0 
    -> L=1 2 1 2:     0.001 sec done=        36 (=100.0%) skipped=         0 
    -> L=1 2 2 2:     0.000 sec done=        24 (=100.0%) skipped=         0 
    -> L=2 2 2 2:     0.000 sec done=         6 (=100.0%) skipped=         0 
    ->Total LIBINT loop time =    0.001 sec
                  ***Gradient check signals convergence***
              ***Rediagonalizing the Fockian in SOSCF/NRSCF***

               *****************************************************
               *                     SUCCESS                       *
               *           SCF CONVERGED AFTER   7 CYCLES          *
               *****************************************************


----------------
TOTAL SCF ENERGY
----------------

Total Energy       :           -1.13246502 Eh             -30.81594 eV

Components:
Nuclear Repulsion  :            0.74742544 Eh              20.33848 eV
Electronic Energy  :           -1.87989046 Eh             -51.15442 eV
One Electron Energy:           -2.55025920 Eh             -69.39608 eV
Two Electron Energy:            0.67036874 Eh              18.24166 eV

Virial components:
Potential Energy   :           -2.29057775 Eh             -62.32979 eV
Kinetic Energy     :            1.15811273 Eh              31.51385 eV
Virial Ratio       :            1.97785388


---------------
SCF CONVERGENCE
---------------

  Last Energy change         ...   -1.1532e-08  Tolerance :   1.0000e-08
  Last MAX-Density change    ...    8.5218e-07  Tolerance :   1.0000e-07
  Last RMS-Density change    ...    7.1123e-08  Tolerance :   5.0000e-09
  Last Orbital Gradient      ...    1.5988e-06  Tolerance :   1.0000e-05
  Last Orbital Rotation      ...    9.4302e-07  Tolerance :   1.0000e-05

             **** THE GBW FILE WAS UPDATED (hydrogen-molecule-MP2-def2-TVZPP.gbw) ****
             **** DENSITY hydrogen-molecule-MP2-def2-TVZPP.scfp WAS UPDATED ****
             **** ENERGY FILE WAS UPDATED (hydrogen-molecule-MP2-def2-TVZPP.en.tmp) ****
             **** THE GBW FILE WAS UPDATED (hydrogen-molecule-MP2-def2-TVZPP.gbw) ****
             **** DENSITY hydrogen-molecule-MP2-def2-TVZPP.scfp WAS UPDATED ****
----------------
ORBITAL ENERGIES
----------------

  NO   OCC          E(Eh)            E(eV) 
   0   2.0000      -0.604761       -16.4564 
   1   0.0000       0.172158         4.6847 
   2   0.0000       0.303587         8.2610 
   3   0.0000       0.658980        17.9318 
   4   0.0000       0.696318        18.9478 
   5   0.0000       0.696318        18.9478 
   6   0.0000       1.105237        30.0750 
   7   0.0000       1.125030        30.6136 
   8   0.0000       1.125030        30.6136 
   9   0.0000       1.540104        41.9084 
  10   0.0000       2.352259        64.0082 
  11   0.0000       2.399823        65.3025 
  12   0.0000       3.180445        86.5443 
  13   0.0000       3.180445        86.5443 
  14   0.0000       3.430816        93.3573 
  15   0.0000       3.430816        93.3573 
  16   0.0000       3.685470       100.2867 
  17   0.0000       3.863738       105.1376 
  18   0.0000       3.863738       105.1376 
  19   0.0000       4.119465       112.0963 
  20   0.0000       4.119465       112.0963 
  21   0.0000       4.145982       112.8179 
  22   0.0000       4.145982       112.8179 
  23   0.0000       4.760307       129.5345 
  24   0.0000       5.862358       159.5229 
  25   0.0000       5.862358       159.5229 
  26   0.0000       5.953677       162.0078 
  27   0.0000       7.168002       195.0513 
------------------
MOLECULAR ORBITALS
------------------
                      0         1         2         3         4         5   
                  -0.60476   0.17216   0.30359   0.65898   0.69632   0.69632
                   2.00000   0.00000   0.00000   0.00000   0.00000   0.00000
                  --------  --------  --------  --------  --------  --------
  0H   1s         0.189743 -0.059124 -0.057267 -0.134930 -0.000000  0.000000
  0H   2s         0.282612  0.405099 -0.724420 -2.623752 -0.000000  0.000000
  0H   3s         0.130822 -2.452431  0.857146  2.328419  0.000000 -0.000000
  0H   1pz        0.000000  0.000000 -0.000000 -0.000000 -0.005371  0.057862
  0H   1px        0.012377  0.038073 -0.017454 -0.095916 -0.000000  0.000000
  0H   1py        0.000000 -0.000000  0.000000  0.000000  0.057862  0.005371
  0H   2pz       -0.000000 -0.000000 -0.000000 -0.000000  0.053079 -0.571847
  0H   2px        0.016534  0.129258  0.057672 -0.316696  0.000000  0.000000
  0H   2py       -0.000000  0.000000 -0.000000  0.000000 -0.571847 -0.053079
  0H   1dz2      -0.000328 -0.010210 -0.003973  0.037811  0.000000 -0.000000
  0H   1dxz      -0.000000 -0.000000 -0.000000 -0.000000 -0.000713  0.007678
  0H   1dyz       0.000000  0.000000  0.000000  0.000000  0.000000  0.000000
  0H   1dx2y2     0.000569  0.017684  0.006882 -0.065490 -0.000000  0.000000
  0H   1dxy       0.000000 -0.000000 -0.000000  0.000000  0.007678  0.000713
  1H   1s         0.189743  0.059124 -0.057267  0.134930 -0.000000 -0.000000
  1H   2s         0.282612 -0.405099 -0.724420  2.623752  0.000000 -0.000000
  1H   3s         0.130822  2.452431  0.857146 -2.328419 -0.000000  0.000000
  1H   1pz        0.000000  0.000000  0.000000  0.000000 -0.005371  0.057862
  1H   1px       -0.012377  0.038073  0.017454 -0.095916  0.000000  0.000000
  1H   1py       -0.000000  0.000000 -0.000000 -0.000000  0.057862  0.005371
  1H   2pz       -0.000000 -0.000000  0.000000  0.000000  0.053079 -0.571847
  1H   2px       -0.016534  0.129258 -0.057672 -0.316696 -0.000000  0.000000
  1H   2py        0.000000 -0.000000 -0.000000 -0.000000 -0.571847 -0.053079
  1H   1dz2      -0.000328  0.010210 -0.003973 -0.037811 -0.000000  0.000000
  1H   1dxz      -0.000000 -0.000000 -0.000000 -0.000000  0.000713 -0.007678
  1H   1dyz      -0.000000 -0.000000 -0.000000  0.000000 -0.000000 -0.000000
  1H   1dx2y2     0.000569 -0.017684  0.006882  0.065490 -0.000000 -0.000000
  1H   1dxy       0.000000 -0.000000 -0.000000  0.000000 -0.007678 -0.000713
                      6         7         8         9        10        11   
                   1.10524   1.12503   1.12503   1.54010   2.35226   2.39982
                   0.00000   0.00000   0.00000   0.00000   0.00000   0.00000
                  --------  --------  --------  --------  --------  --------
  0H   1s        -0.016124 -0.000000  0.000000  0.049097  0.555221 -0.955334
  0H   2s        -0.672851 -0.000000  0.000000 14.862007 -2.780892  0.979968
  0H   3s         0.360654  0.000000  0.000000 -0.488808  1.330467 -0.380249
  0H   1pz        0.000000  0.009070 -0.055507  0.000000  0.000000  0.000000
  0H   1px       -0.101057 -0.000000 -0.000000  0.125011 -0.607388 -0.105903
  0H   1py        0.000000 -0.055507 -0.009070 -0.000000 -0.000000  0.000000
  0H   2pz       -0.000000 -0.239368  1.464853 -0.000000 -0.000000 -0.000000
  0H   2px        1.110392 -0.000000  0.000000  6.648147 -0.347004  0.270704
  0H   2py       -0.000000  1.464853  0.239368  0.000000 -0.000000 -0.000000
  0H   1dz2      -0.039984  0.000000 -0.000000 -0.133962  0.203880  0.048866
  0H   1dxz      -0.000000 -0.020384  0.124741  0.000000 -0.000000 -0.000000
  0H   1dyz      -0.000000  0.000000  0.000000  0.000000  0.000000 -0.000000
  0H   1dx2y2     0.069255 -0.000000  0.000000  0.232029 -0.353131 -0.084638
  0H   1dxy      -0.000000  0.124741  0.020384 -0.000000  0.000000 -0.000000
  1H   1s        -0.016124  0.000000 -0.000000 -0.049097 -0.555221 -0.955334
  1H   2s        -0.672851  0.000000 -0.000000-14.862007  2.780892  0.979968
  1H   3s         0.360654 -0.000000  0.000000  0.488808 -1.330467 -0.380249
  1H   1pz       -0.000000 -0.009070  0.055507 -0.000000  0.000000  0.000000
  1H   1px        0.101057 -0.000000  0.000000  0.125011 -0.607388  0.105903
  1H   1py       -0.000000  0.055507  0.009070  0.000000 -0.000000 -0.000000
  1H   2pz        0.000000  0.239368 -1.464853  0.000000  0.000000  0.000000
  1H   2px       -1.110392 -0.000000  0.000000  6.648147 -0.347004 -0.270704
  1H   2py        0.000000 -1.464853 -0.239368 -0.000000  0.000000  0.000000
  1H   1dz2      -0.039984 -0.000000  0.000000  0.133962 -0.203880  0.048866
  1H   1dxz      -0.000000 -0.020384  0.124741  0.000000 -0.000000 -0.000000
  1H   1dyz      -0.000000  0.000000  0.000000 -0.000000  0.000000 -0.000000
  1H   1dx2y2     0.069255  0.000000 -0.000000 -0.232029  0.353131 -0.084638
  1H   1dxy      -0.000000  0.124741  0.020384 -0.000000  0.000000 -0.000000
                     12        13        14        15        16        17   
                   3.18045   3.18045   3.43082   3.43082   3.68547   3.86374
                   0.00000   0.00000   0.00000   0.00000   0.00000   0.00000
                  --------  --------  --------  --------  --------  --------
  0H   1s        -0.000000 -0.000000 -0.000000  0.000000  0.152309 -0.000000
  0H   2s         0.000000  0.000000  0.000000  0.000000  0.238147  0.000000
  0H   3s        -0.000000 -0.000000 -0.000000  0.000000 -0.152005 -0.000000
  0H   1pz       -0.000000  0.000000 -0.604051  0.101118 -0.000000  0.413639
  0H   1px       -0.000000  0.000000 -0.000000 -0.000000  0.795338  0.000000
  0H   1py       -0.000000  0.000000  0.101118  0.604051  0.000000  0.011155
  0H   2pz        0.000000  0.000000  0.360048 -0.060272  0.000000 -1.199827
  0H   2px        0.000000  0.000000  0.000000  0.000000 -0.930645  0.000000
  0H   2py        0.000000 -0.000000 -0.060272 -0.360048 -0.000000 -0.032358
  0H   1dz2       0.519730 -0.000057 -0.000000  0.000000  0.251495  0.000000
  0H   1dxz       0.000000  0.000000 -0.283678  0.047488  0.000000 -0.905482
  0H   1dyz       0.000065  0.600132 -0.000000 -0.000000 -0.000000 -0.000000
  0H   1dx2y2     0.300066 -0.000033 -0.000000  0.000000 -0.435603 -0.000000
  0H   1dxy      -0.000000 -0.000000  0.047488  0.283678 -0.000000 -0.024420
  1H   1s         0.000000  0.000000 -0.000000 -0.000000  0.152309  0.000000
  1H   2s        -0.000000 -0.000000 -0.000000 -0.000000  0.238147 -0.000000
  1H   3s         0.000000  0.000000  0.000000 -0.000000 -0.152005  0.000000
  1H   1pz       -0.000000 -0.000000 -0.604051  0.101118 -0.000000 -0.413639
  1H   1px        0.000000  0.000000  0.000000  0.000000 -0.795338 -0.000000
  1H   1py       -0.000000 -0.000000  0.101118  0.604051  0.000000 -0.011155
  1H   2pz       -0.000000  0.000000  0.360048 -0.060272 -0.000000  1.199827
  1H   2px        0.000000  0.000000 -0.000000  0.000000  0.930645  0.000000
  1H   2py        0.000000  0.000000 -0.060272 -0.360048 -0.000000  0.032358
  1H   1dz2       0.519730 -0.000057 -0.000000  0.000000  0.251495  0.000000
  1H   1dxz       0.000000  0.000000  0.283678 -0.047488  0.000000 -0.905482
  1H   1dyz       0.000065  0.600132 -0.000000  0.000000 -0.000000  0.000000
  1H   1dx2y2     0.300066 -0.000033  0.000000  0.000000 -0.435603  0.000000
  1H   1dxy       0.000000  0.000000 -0.047488 -0.283678 -0.000000 -0.024420
                     18        19        20        21        22        23   
                   3.86374   4.11947   4.11947   4.14598   4.14598   4.76031
                   0.00000   0.00000   0.00000   0.00000   0.00000   0.00000
                  --------  --------  --------  --------  --------  --------
  0H   1s         0.000000  0.000000 -0.000000 -0.000000 -0.000000  0.726332
  0H   2s        -0.000000  0.000000 -0.000000 -0.000000 -0.000000  7.993677
  0H   3s         0.000000  0.000000 -0.000000  0.000000 -0.000000  0.063422
  0H   1pz       -0.011155  0.000000 -0.000000 -0.595811  0.206163  0.000000
  0H   1px       -0.000000 -0.000000  0.000000  0.000000  0.000000 -0.242512
  0H   1py        0.413639  0.000000 -0.000000 -0.206163 -0.595811 -0.000000
  0H   2pz        0.032358 -0.000000 -0.000000  0.218998 -0.075778 -0.000000
  0H   2px        0.000000  0.000000 -0.000000 -0.000000 -0.000000  3.957597
  0H   2py       -1.199827 -0.000000 -0.000000  0.075778  0.218998  0.000000
  0H   1dz2      -0.000000  0.000016  0.782957 -0.000000 -0.000000 -0.467591
  0H   1dxz       0.024420 -0.000000  0.000000  0.566284 -0.195946  0.000000
  0H   1dyz       0.000000  0.904081 -0.000019  0.000000  0.000000 -0.000000
  0H   1dx2y2     0.000000  0.000009  0.452040 -0.000000 -0.000000  0.809891
  0H   1dxy      -0.905482 -0.000000  0.000000  0.195946  0.566284  0.000000
  1H   1s        -0.000000 -0.000000  0.000000 -0.000000  0.000000 -0.726332
  1H   2s        -0.000000 -0.000000  0.000000  0.000000  0.000000 -7.993677
  1H   3s        -0.000000 -0.000000  0.000000 -0.000000  0.000000 -0.063422
  1H   1pz        0.011155  0.000000 -0.000000 -0.595811  0.206163 -0.000000
  1H   1px        0.000000 -0.000000  0.000000  0.000000 -0.000000 -0.242512
  1H   1py       -0.413639  0.000000 -0.000000 -0.206163 -0.595811 -0.000000
  1H   2pz       -0.032358 -0.000000  0.000000  0.218998 -0.075778  0.000000
  1H   2px        0.000000  0.000000 -0.000000 -0.000000 -0.000000  3.957597
  1H   2py        1.199827 -0.000000  0.000000  0.075778  0.218998 -0.000000
  1H   1dz2       0.000000 -0.000016 -0.782957  0.000000  0.000000  0.467591
  1H   1dxz       0.024420  0.000000 -0.000000 -0.566284  0.195946  0.000000
  1H   1dyz      -0.000000 -0.904081  0.000019 -0.000000 -0.000000  0.000000
  1H   1dx2y2    -0.000000 -0.000009 -0.452040  0.000000  0.000000 -0.809891
  1H   1dxy      -0.905482  0.000000 -0.000000 -0.195946 -0.566284 -0.000000
                     24        25        26        27   
                   5.86236   5.86236   5.95368   7.16800
                   0.00000   0.00000   0.00000   0.00000
                  --------  --------  --------  --------
  0H   1s         0.000000 -0.000000 -1.298099 -1.803223
  0H   2s         0.000000  0.000000  0.624626 -4.529756
  0H   3s         0.000000 -0.000000 -0.104947  0.629271
  0H   1pz       -0.037462 -1.215071  0.000000  0.000000
  0H   1px       -0.000000 -0.000000  0.076687 -2.051804
  0H   1py        1.215071 -0.037462  0.000000 -0.000000
  0H   2pz       -0.015786 -0.512018  0.000000  0.000000
  0H   2px        0.000000  0.000000  0.745268 -1.674611
  0H   2py        0.512018 -0.015786  0.000000 -0.000000
  0H   1dz2       0.000000 -0.000000 -0.579210  0.496826
  0H   1dxz      -0.043534 -1.412029  0.000000  0.000000
  0H   1dyz      -0.000000  0.000000  0.000000  0.000000
  0H   1dx2y2    -0.000000  0.000000  1.003222 -0.860528
  0H   1dxy       1.412029 -0.043534  0.000000 -0.000000
  1H   1s         0.000000 -0.000000 -1.298099  1.803223
  1H   2s        -0.000000 -0.000000  0.624626  4.529756
  1H   3s         0.000000 -0.000000 -0.104947 -0.629271
  1H   1pz        0.037462  1.215071 -0.000000 -0.000000
  1H   1px       -0.000000 -0.000000 -0.076687 -2.051804
  1H   1py       -1.215071  0.037462 -0.000000  0.000000
  1H   2pz        0.015786  0.512018 -0.000000 -0.000000
  1H   2px        0.000000  0.000000 -0.745268 -1.674611
  1H   2py       -0.512018  0.015786 -0.000000  0.000000
  1H   1dz2       0.000000 -0.000000 -0.579210 -0.496826
  1H   1dxz      -0.043534 -1.412029  0.000000  0.000000
  1H   1dyz       0.000000  0.000000  0.000000 -0.000000
  1H   1dx2y2    -0.000000  0.000000  1.003222  0.860528
  1H   1dxy       1.412029 -0.043534  0.000000 -0.000000



                    ********************************
                    * MULLIKEN POPULATION ANALYSIS *
                    ********************************

-----------------------
MULLIKEN ATOMIC CHARGES
-----------------------
   0 H :    0.000000
   1 H :   -0.000000
Sum of atomic charges:   -0.0000000

--------------------------------
MULLIKEN REDUCED ORBITAL CHARGES
--------------------------------
  0 H s       :     0.984680  s :     0.984680
      pz      :     0.000000  p :     0.015161
      px      :     0.015161
      py      :     0.000000
      dz2     :     0.000040  d :     0.000160
      dxz     :     0.000000
      dyz     :     0.000000
      dx2y2   :     0.000120
      dxy     :     0.000000
  1 H s       :     0.984680  s :     0.984680
      pz      :     0.000000  p :     0.015161
      px      :     0.015161
      py      :     0.000000
      dz2     :     0.000040  d :     0.000160
      dxz     :    -0.000000
      dyz     :     0.000000
      dx2y2   :     0.000120
      dxy     :     0.000000

------------------------
MULLIKEN OVERLAP CHARGES
------------------------
B(  0-H ,  1-H ) :   0.8550 


                     *******************************
                     * LOEWDIN POPULATION ANALYSIS *
                     *******************************

----------------------
LOEWDIN ATOMIC CHARGES
----------------------
   0 H :   -0.000000
   1 H :   -0.000000

-------------------------------
LOEWDIN REDUCED ORBITAL CHARGES
-------------------------------
  0 H s       :     0.950793  s :     0.950793
      pz      :     0.000000  p :     0.043542
      px      :     0.043542
      py      :     0.000000
      dz2     :     0.001416  d :     0.005665
      dxz     :     0.000000
      dyz     :     0.000000
      dx2y2   :     0.004249
      dxy     :     0.000000
  1 H s       :     0.950793  s :     0.950793
      pz      :     0.000000  p :     0.043542
      px      :     0.043542
      py      :     0.000000
      dz2     :     0.001416  d :     0.005665
      dxz     :     0.000000
      dyz     :     0.000000
      dx2y2   :     0.004249
      dxy     :     0.000000

---------------------------------
LOEWDIN BOND ORDERS (THRESH 0.050000)
---------------------------------
B(  0-H ,  1-H ) :   1.0000 

------------------------------------------
LOEWDIN REDUCED ORBITAL POPULATIONS PER MO
-------------------------------------------
THRESHOLD FOR PRINTING IS 0.1%
                      0         1         2         3         4         5   
                  -0.60476   0.17216   0.30359   0.65898   0.69632   0.69632
                   2.00000   0.00000   0.00000   0.00000   0.00000   0.00000
                  --------  --------  --------  --------  --------  --------
 0 H  s              47.5      35.8      47.9      27.2       0.0       0.0
 0 H  pz              0.0       0.0       0.0       0.0       0.4      49.4
 0 H  px              2.2      14.2       1.9      21.2       0.0       0.0
 0 H  py              0.0       0.0       0.0       0.0      49.4       0.4
 0 H  dz2             0.1       0.0       0.1       0.4       0.0       0.0
 0 H  dxz             0.0       0.0       0.0       0.0       0.0       0.1
 0 H  dx2y2           0.2       0.0       0.2       1.2       0.0       0.0
 0 H  dxy             0.0       0.0       0.0       0.0       0.1       0.0
 1 H  s              47.5      35.8      47.9      27.2       0.0       0.0
 1 H  pz              0.0       0.0       0.0       0.0       0.4      49.4
 1 H  px              2.2      14.2       1.9      21.2       0.0       0.0
 1 H  py              0.0       0.0       0.0       0.0      49.4       0.4
 1 H  dz2             0.1       0.0       0.1       0.4       0.0       0.0
 1 H  dxz             0.0       0.0       0.0       0.0       0.0       0.1
 1 H  dx2y2           0.2       0.0       0.2       1.2       0.0       0.0
 1 H  dxy             0.0       0.0       0.0       0.0       0.1       0.0

                      6         7         8         9        10        11   
                   1.10524   1.12503   1.12503   1.54010   2.35226   2.39982
                   0.00000   0.00000   0.00000   0.00000   0.00000   0.00000
                  --------  --------  --------  --------  --------  --------
 0 H  s               6.2       0.0       0.0      31.4      26.9      32.6
 0 H  pz              0.0       1.1      42.5       0.0       0.0       0.0
 0 H  px             41.5       0.0       0.0       8.9      11.1       3.5
 0 H  py              0.0      42.5       1.1       0.0       0.0       0.0
 0 H  dz2             0.6       0.0       0.0       2.4       3.0       3.5
 0 H  dxz             0.0       0.2       6.2       0.0       0.0       0.0
 0 H  dx2y2           1.7       0.0       0.0       7.3       9.0      10.5
 0 H  dxy             0.0       6.2       0.2       0.0       0.0       0.0
 1 H  s               6.2       0.0       0.0      31.4      26.9      32.6
 1 H  pz              0.0       1.1      42.5       0.0       0.0       0.0
 1 H  px             41.5       0.0       0.0       8.9      11.1       3.5
 1 H  py              0.0      42.5       1.1       0.0       0.0       0.0
 1 H  dz2             0.6       0.0       0.0       2.4       3.0       3.5
 1 H  dxz             0.0       0.2       6.2       0.0       0.0       0.0
 1 H  dx2y2           1.7       0.0       0.0       7.3       9.0      10.5
 1 H  dxy             0.0       6.2       0.2       0.0       0.0       0.0

                     12        13        14        15        16        17   
                   3.18045   3.18045   3.43082   3.43082   3.68547   3.86374
                   0.00000   0.00000   0.00000   0.00000   0.00000   0.00000
                  --------  --------  --------  --------  --------  --------
 0 H  s               0.0       0.0       0.0       0.0       0.5       0.0
 0 H  pz              0.0       0.0      31.0       0.9       0.0      27.2
 0 H  px              0.0       0.0       0.0       0.0      45.3       0.0
 0 H  py              0.0       0.0       0.9      31.0       0.0       0.0
 0 H  dz2            37.5       0.0       0.0       0.0       1.0       0.0
 0 H  dxz             0.0       0.0      17.6       0.5       0.0      22.8
 0 H  dyz             0.0      50.0       0.0       0.0       0.0       0.0
 0 H  dx2y2          12.5       0.0       0.0       0.0       3.1       0.0
 0 H  dxy             0.0       0.0       0.5      17.6       0.0       0.0
 1 H  s               0.0       0.0       0.0       0.0       0.5       0.0
 1 H  pz              0.0       0.0      31.0       0.9       0.0      27.2
 1 H  px              0.0       0.0       0.0       0.0      45.3       0.0
 1 H  py              0.0       0.0       0.9      31.0       0.0       0.0
 1 H  dz2            37.5       0.0       0.0       0.0       1.0       0.0
 1 H  dxz             0.0       0.0      17.6       0.5       0.0      22.8
 1 H  dyz             0.0      50.0       0.0       0.0       0.0       0.0
 1 H  dx2y2          12.5       0.0       0.0       0.0       3.1       0.0
 1 H  dxy             0.0       0.0       0.5      17.6       0.0       0.0

                     18        19        20        21        22        23   
                   3.86374   4.11947   4.11947   4.14598   4.14598   4.76031
                   0.00000   0.00000   0.00000   0.00000   0.00000   0.00000
                  --------  --------  --------  --------  --------  --------
 0 H  s               0.0       0.0       0.0       0.0       0.0       8.5
 0 H  pz              0.0       0.0       0.0      16.3       1.9       0.0
 0 H  px              0.0       0.0       0.0       0.0       0.0      16.5
 0 H  py             27.2       0.0       0.0       1.9      16.3       0.0
 0 H  dz2             0.0       0.0      37.5       0.0       0.0       6.3
 0 H  dxz             0.0       0.0       0.0      28.4       3.4       0.0
 0 H  dyz             0.0      50.0       0.0       0.0       0.0       0.0
 0 H  dx2y2           0.0       0.0      12.5       0.0       0.0      18.8
 0 H  dxy            22.8       0.0       0.0       3.4      28.4       0.0
 1 H  s               0.0       0.0       0.0       0.0       0.0       8.5
 1 H  pz              0.0       0.0       0.0      16.3       1.9       0.0
 1 H  px              0.0       0.0       0.0       0.0       0.0      16.5
 1 H  py             27.2       0.0       0.0       1.9      16.3       0.0
 1 H  dz2             0.0       0.0      37.5       0.0       0.0       6.3
 1 H  dxz             0.0       0.0       0.0      28.4       3.4       0.0
 1 H  dyz             0.0      50.0       0.0       0.0       0.0       0.0
 1 H  dx2y2           0.0       0.0      12.5       0.0       0.0      18.8
 1 H  dxy            22.8       0.0       0.0       3.4      28.4       0.0

                     24        25        26        27   
                   5.86236   5.86236   5.95368   7.16800
                   0.00000   0.00000   0.00000   0.00000
                  --------  --------  --------  --------
 0 H  s               0.0       0.0      15.3      20.2
 0 H  pz              0.0      29.1       0.0       0.0
 0 H  px              0.0       0.0       5.7      28.1
 0 H  py             29.1       0.0       0.0       0.0
 0 H  dz2             0.0       0.0       7.3       0.4
 0 H  dxz             0.0      20.8       0.0       0.0
 0 H  dx2y2           0.0       0.0      21.8       1.3
 0 H  dxy            20.8       0.0       0.0       0.0
 1 H  s               0.0       0.0      15.3      20.2
 1 H  pz              0.0      29.1       0.0       0.0
 1 H  px              0.0       0.0       5.7      28.1
 1 H  py             29.1       0.0       0.0       0.0
 1 H  dz2             0.0       0.0       7.3       0.4
 1 H  dxz             0.0      20.8       0.0       0.0
 1 H  dx2y2           0.0       0.0      21.8       1.3
 1 H  dxy            20.8       0.0       0.0       0.0


                      *****************************
                      * MAYER POPULATION ANALYSIS *
                      *****************************

  NA   - Mulliken gross atomic population
  ZA   - Total nuclear charge
  QA   - Mulliken gross atomic charge
  VA   - Mayer's total valence
  BVA  - Mayer's bonded valence
  FA   - Mayer's free valence

  ATOM       NA         ZA         QA         VA         BVA        FA
  0 H      1.0000     1.0000     0.0000     1.0000     1.0000    -0.0000
  1 H      1.0000     1.0000    -0.0000     1.0000     1.0000    -0.0000

  Mayer bond orders larger than 0.100000
B(  0-H ,  1-H ) :   1.0000 

-------
TIMINGS
-------

Total SCF time: 0 days 0 hours 0 min 0 sec 

Total time                  ....       0.253 sec
Sum of individual times     ....       0.122 sec  ( 48.2%)

Fock matrix formation       ....       0.078 sec  ( 30.8%)
Diagonalization             ....       0.001 sec  (  0.4%)
Density matrix formation    ....       0.000 sec  (  0.0%)
Population analysis         ....       0.009 sec  (  3.6%)
Initial guess               ....       0.009 sec  (  3.6%)
Orbital Transformation      ....       0.000 sec  (  0.0%)
Orbital Orthonormalization  ....       0.000 sec  (  0.0%)
DIIS solution               ....       0.014 sec  (  5.5%)
SOSCF solution              ....       0.007 sec  (  2.8%)

Maximum memory used throughout the entire SCF-calculation: 224.4 MB

------------------------------------------------------------------------------
                                ORCA  MP2 
------------------------------------------------------------------------------

Freezing NCore=0 chemical core electrons
MP2 will be done in the AO integral direct mode
The Q1-step will be done using symmetric double matrices
Dimension of the basis                    ...   28
Memory devoted for MP2                    ...  256 MB   
Memory needed for all in one shot         ...    1 MB
Number of MOs that can be treated together... 2950      
MP2 density construction                  ... relaxed
The MP2 gradient is requested => amplitudes will be stored on disk
Total number of MOs              ...    1
Number of MOs treated per batch  ...    1 
Number of batches necessary      ...    1 
OPERATORS   0/  0 PASS   0
-----------------------------------------------
 MP2 CORRELATION ENERGY   :     -0.031563982 Eh
-----------------------------------------------


---------------------
MP2 DENSITY FORMATION
---------------------

Completing the external part of the density      ... done
Storing the unrelaxed density                    ... done

Calculating G(D)                                 ... SHARK General Contraction Test:  Segmented basis detected
   -> Pre-screening matrix found on disk - Trying to read with NShells=12
   -> Passing Pre-screening matrix on to SHARK ...ok
   -> Leaving CheckPreScreeningMatrix
----------------------
SHARK INTEGRAL PACKAGE
----------------------

Number of atoms                             ...      2
Number of basis functions                   ...     28
Number of shells                            ...     12
Maximum angular momentum                    ...      2
Integral batch strategy                     ... SHARK/LIBINT Hybrid
RI-J (if used) integral strategy            ... SPLIT-RIJ (Revised 2003 algorithm where possible)
Printlevel                                  ...      2
Contraction scheme used                     ... SEGMENTED contraction
Coulomb Range Separation                    ... NOT USED
Exchange Range Separation                   ... NOT USED
Finite Nucleus Model                        ... NOT USED
Auxiliary Coulomb fitting basis             ... NOT available
Auxiliary J/K fitting basis                 ... NOT available
Auxiliary Correlation fitting basis         ... NOT available
Auxiliary 'external' fitting basis          ... NOT available
Integral threshold                          ...     2.500000e-11
Primitive cut-off                           ...     2.500000e-12
Primitive pair pre-selection threshold      ...     2.500000e-12

    -> L=0 0 0 0:     0.000 sec done=       231 (=100.0%) skipped=         0 
    -> L=1 0 0 0:     0.001 sec done=       504 (=100.0%) skipped=         0 
    -> L=1 0 1 0:     0.000 sec done=       300 (=100.0%) skipped=         0 
    -> L=1 1 0 0:     0.000 sec done=       210 (=100.0%) skipped=         0 
    -> L=1 1 1 0:     0.000 sec done=       240 (=100.0%) skipped=         0 
    -> L=1 1 1 1:     0.000 sec done=        55 (=100.0%) skipped=         0 
    -> L=2 0 0 0:     0.000 sec done=       252 (=100.0%) skipped=         0 
    -> L=2 0 1 0:     0.001 sec done=       288 (=100.0%) skipped=         0 
    -> L=2 0 1 1:     0.000 sec done=       120 (=100.0%) skipped=         0 
    -> L=2 0 2 0:     0.000 sec done=        78 (=100.0%) skipped=         0 
    -> L=2 1 0 0:     0.000 sec done=       168 (=100.0%) skipped=         0 
    -> L=2 1 1 0:     0.001 sec done=       192 (=100.0%) skipped=         0 
    -> L=2 1 2 0:     0.000 sec done=        96 (=100.0%) skipped=         0 
    -> L=2 2 0 0:     0.000 sec done=        63 (=100.0%) skipped=         0 
    ->Total SHARK integral loop time =    0.003 sec
    -> L=0 1 2 2:     0.001 sec done=        72 (=100.0%) skipped=         0 
    -> L=0 2 2 2:     0.000 sec done=        36 (=100.0%) skipped=         0 
    -> L=1 1 1 2:     0.000 sec done=        80 (=100.0%) skipped=         0 
    -> L=1 1 2 2:     0.000 sec done=        30 (=100.0%) skipped=         0 
    -> L=1 2 1 2:     0.000 sec done=        36 (=100.0%) skipped=         0 
    -> L=1 2 2 2:     0.000 sec done=        24 (=100.0%) skipped=         0 
    -> L=2 2 2 2:     0.001 sec done=         6 (=100.0%) skipped=         0 
    ->Total LIBINT loop time =    0.002 sec
done
Completing the Lagrangian                        ... done
Solving the Z-vector equations                   ... 

------------------------------------------------------------------------------
                           ORCA CP-SCF CALCULATION
------------------------------------------------------------------------------

Input orbitals are from        ... hydrogen-molecule-MP2-def2-TVZPP.gbw
Input Perturbation             ... hydrogen-molecule-MP2-def2-TVZPP.pin.tmp
Wavefunction output            ... hydrogen-molecule-MP2-def2-TVZPP.pout.tmp
Perturbation mode              ... Real perturbation (singlet)
Solver                         ... POPLE
Max. number of iterations      ... 128
Convergence tolerance          ... 1.000e-04
Integral handling              ... Direct
Number of perturbations        ... 1
Number of operators            ... 1
Orbital ranges used for CP-SCF:
 Operator 0:  Orbitals   0...  0  to   1... 27
Variables per perturbation     ... 27
SHARK General Contraction Test:  Segmented basis detected
   -> Pre-screening matrix found on disk - Trying to read with NShells=12
   -> Passing Pre-screening matrix on to SHARK ...ok
   -> Leaving CheckPreScreeningMatrix
----------------------
SHARK INTEGRAL PACKAGE
----------------------

Number of atoms                             ...      2
Number of basis functions                   ...     28
Number of shells                            ...     12
Maximum angular momentum                    ...      2
Integral batch strategy                     ... SHARK/LIBINT Hybrid
RI-J (if used) integral strategy            ... SPLIT-RIJ (Revised 2003 algorithm where possible)
Printlevel                                  ...      2
Contraction scheme used                     ... SEGMENTED contraction
Coulomb Range Separation                    ... NOT USED
Exchange Range Separation                   ... NOT USED
Finite Nucleus Model                        ... NOT USED
Auxiliary Coulomb fitting basis             ... NOT available
Auxiliary J/K fitting basis                 ... NOT available
Auxiliary Correlation fitting basis         ... NOT available
Auxiliary 'external' fitting basis          ... NOT available
Integral threshold                          ...     2.500000e-11
Primitive cut-off                           ...     2.500000e-12
Primitive pair pre-selection threshold      ...     2.500000e-12

Memory available               ... 1022.2 MB
Memory needed per perturbation ...   0.1 MB
Perturbations treated per batch... 1
Number of batches              ... 1
     CP-SCF ITERATION   0: SHARK-Pert[2]    -> L=0 0 0 0:     0.000 sec done=       231 (=100.0%) skipped=         0 
    -> L=1 0 0 0:     0.000 sec done=       504 (=100.0%) skipped=         0 
    -> L=1 0 1 0:     0.000 sec done=       300 (=100.0%) skipped=         0 
    -> L=1 1 0 0:     0.000 sec done=       210 (=100.0%) skipped=         0 
    -> L=1 1 1 0:     0.000 sec done=       240 (=100.0%) skipped=         0 
    -> L=1 1 1 1:     0.000 sec done=        55 (=100.0%) skipped=         0 
    -> L=2 0 0 0:     0.000 sec done=       252 (=100.0%) skipped=         0 
    -> L=2 0 1 0:     0.000 sec done=       288 (=100.0%) skipped=         0 
    -> L=2 0 1 1:     0.000 sec done=       120 (=100.0%) skipped=         0 
    -> L=2 0 2 0:     0.001 sec done=        78 (=100.0%) skipped=         0 
    -> L=2 1 0 0:     0.000 sec done=       168 (=100.0%) skipped=         0 
    -> L=2 1 1 0:     0.000 sec done=       192 (=100.0%) skipped=         0 
    -> L=2 1 2 0:     0.000 sec done=        96 (=100.0%) skipped=         0 
    -> L=2 2 0 0:     0.000 sec done=        63 (=100.0%) skipped=         0 
    ->Total SHARK integral loop time =    0.002 sec
    -> L=0 1 2 2:     0.000 sec done=        72 (=100.0%) skipped=         0 
    -> L=0 2 2 2:     0.000 sec done=        36 (=100.0%) skipped=         0 
    -> L=1 1 1 2:     0.000 sec done=        80 (=100.0%) skipped=         0 
[...]
    -> L=2 1 2 0:     0.000 sec done=        96 (=100.0%) skipped=         0 
    -> L=2 2 0 0:     0.000 sec done=        63 (=100.0%) skipped=         0 
    ->Total SHARK integral loop time =    0.002 sec
    -> L=0 1 2 2:     0.000 sec done=        72 (=100.0%) skipped=         0 
    -> L=0 2 2 2:     0.000 sec done=        36 (=100.0%) skipped=         0 
    -> L=1 1 1 2:     0.000 sec done=        80 (=100.0%) skipped=         0 
    -> L=1 1 2 2:     0.001 sec done=        30 (=100.0%) skipped=         0 
    -> L=1 2 1 2:     0.000 sec done=        36 (=100.0%) skipped=         0 
    -> L=1 2 2 2:     0.000 sec done=        24 (=100.0%) skipped=         0 
    -> L=2 2 2 2:     0.000 sec done=         6 (=100.0%) skipped=         0 
    ->Total LIBINT loop time =    0.001 sec
done
Finalizing the W-matrix                          ...                                                      done
Transforming W to the AO basis and storing       ... done

                *********************************************
                * UNRELAXED MP2 DENSITY POPULATION ANALYSIS *
                *********************************************

------------------------------------------------------------------------------
                           ORCA POPULATION ANALYSIS
------------------------------------------------------------------------------
Input electron density              ... hydrogen-molecule-MP2-def2-TVZPP.pmp2ur
BaseName (.gbw .S,...)              ... hydrogen-molecule-MP2-def2-TVZPP

                    ********************************
                    * MULLIKEN POPULATION ANALYSIS *
                    ********************************

-----------------------
MULLIKEN ATOMIC CHARGES
-----------------------
   0 H :   -0.000000
   1 H :    0.000000
Sum of atomic charges:   -0.0000000

--------------------------------
MULLIKEN REDUCED ORBITAL CHARGES
--------------------------------
  0 H s       :     0.979689  s :     0.979689
      pz      :     0.001445  p :     0.019678
      px      :     0.016788
      py      :     0.001445
      dz2     :     0.000130  d :     0.000634
      dxz     :     0.000084
      dyz     :     0.000052
      dx2y2   :     0.000284
      dxy     :     0.000084
  1 H s       :     0.979689  s :     0.979689
      pz      :     0.001445  p :     0.019678
      px      :     0.016788
      py      :     0.001445
      dz2     :     0.000130  d :     0.000634
      dxz     :     0.000084
      dyz     :     0.000052
      dx2y2   :     0.000284
      dxy     :     0.000084

------------------------
MULLIKEN OVERLAP CHARGES
------------------------
B(  0-H ,  1-H ) :   0.8306 


                     *******************************
                     * LOEWDIN POPULATION ANALYSIS *
                     *******************************

----------------------
LOEWDIN ATOMIC CHARGES
----------------------
   0 H :   -0.000000
   1 H :   -0.000000

-------------------------------
LOEWDIN REDUCED ORBITAL CHARGES
-------------------------------
  0 H s       :     0.945387  s :     0.945387
      pz      :     0.001413  p :     0.048426
      px      :     0.045601
      py      :     0.001413
      dz2     :     0.001502  d :     0.006186
      dxz     :     0.000116
      dyz     :     0.000052
      dx2y2   :     0.004400
      dxy     :     0.000116
  1 H s       :     0.945387  s :     0.945387
      pz      :     0.001413  p :     0.048426
      px      :     0.045601
      py      :     0.001413
      dz2     :     0.001502  d :     0.006186
      dxz     :     0.000116
      dyz     :     0.000052
      dx2y2   :     0.004400
      dxy     :     0.000116

---------------------------------
LOEWDIN BOND ORDERS (THRESH 0.050000)
---------------------------------
B(  0-H ,  1-H ) :   0.9786 


                      *****************************
                      * MAYER POPULATION ANALYSIS *
                      *****************************

  NA   - Mulliken gross atomic population
  ZA   - Total nuclear charge
  QA   - Mulliken gross atomic charge
  VA   - Mayer's total valence
  BVA  - Mayer's bonded valence
  FA   - Mayer's free valence

  ATOM       NA         ZA         QA         VA         BVA        FA
  0 H      1.0000     1.0000    -0.0000     1.0146     0.9745     0.0401
  1 H      1.0000     1.0000     0.0000     1.0146     0.9745     0.0401

  Mayer bond orders larger than 0.100000
B(  0-H ,  1-H ) :   0.9745 


                *******************************************
                * RELAXED MP2 DENSITY POPULATION ANALYSIS *
                *******************************************

------------------------------------------------------------------------------
                           ORCA POPULATION ANALYSIS
------------------------------------------------------------------------------
Input electron density              ... hydrogen-molecule-MP2-def2-TVZPP.pmp2re
BaseName (.gbw .S,...)              ... hydrogen-molecule-MP2-def2-TVZPP

                    ********************************
                    * MULLIKEN POPULATION ANALYSIS *
                    ********************************

-----------------------
MULLIKEN ATOMIC CHARGES
-----------------------
   0 H :    0.000000
   1 H :   -0.000000
Sum of atomic charges:   -0.0000000

--------------------------------
MULLIKEN REDUCED ORBITAL CHARGES
--------------------------------
  0 H s       :     0.981269  s :     0.981269
      pz      :     0.001445  p :     0.018120
      px      :     0.015230
      py      :     0.001445
      dz2     :     0.000124  d :     0.000611
      dxz     :     0.000084
      dyz     :     0.000052
      dx2y2   :     0.000267
      dxy     :     0.000084
  1 H s       :     0.981269  s :     0.981269
      pz      :     0.001445  p :     0.018120
      px      :     0.015230
      py      :     0.001445
      dz2     :     0.000124  d :     0.000611
      dxz     :     0.000084
      dyz     :     0.000052
      dx2y2   :     0.000267
      dxy     :     0.000084

------------------------
MULLIKEN OVERLAP CHARGES
------------------------
B(  0-H ,  1-H ) :   0.8253 


                     *******************************
                     * LOEWDIN POPULATION ANALYSIS *
                     *******************************

----------------------
LOEWDIN ATOMIC CHARGES
----------------------
   0 H :   -0.000000
   1 H :   -0.000000

-------------------------------
LOEWDIN REDUCED ORBITAL CHARGES
-------------------------------
  0 H s       :     0.945612  s :     0.945612
      pz      :     0.001413  p :     0.047956
      px      :     0.045130
      py      :     0.001413
      dz2     :     0.001563  d :     0.006432
      dxz     :     0.000116
      dyz     :     0.000052
      dx2y2   :     0.004584
      dxy     :     0.000116
  1 H s       :     0.945612  s :     0.945612
      pz      :     0.001413  p :     0.047956
      px      :     0.045130
      py      :     0.001413
      dz2     :     0.001563  d :     0.006432
      dxz     :     0.000116
      dyz     :     0.000052
      dx2y2   :     0.004584
      dxy     :     0.000116

---------------------------------
LOEWDIN BOND ORDERS (THRESH 0.050000)
---------------------------------
B(  0-H ,  1-H ) :   0.9786 


                      *****************************
                      * MAYER POPULATION ANALYSIS *
                      *****************************

  NA   - Mulliken gross atomic population
  ZA   - Total nuclear charge
  QA   - Mulliken gross atomic charge
  VA   - Mayer's total valence
  BVA  - Mayer's bonded valence
  FA   - Mayer's free valence

  ATOM       NA         ZA         QA         VA         BVA        FA
  0 H      1.0000     1.0000     0.0000     1.0144     0.9745     0.0400
  1 H      1.0000     1.0000    -0.0000     1.0144     0.9745     0.0400

  Mayer bond orders larger than 0.100000
B(  0-H ,  1-H ) :   0.9745 


----------------------------------
MP2 DERIVATIVE INTEGRAL GENERATION
----------------------------------


Input Wavefunction Amplitudes       ... hydrogen-molecule-MP2-def2-TVZPP.mp2tsaa.tmp
Input Correlated Electron Density   ... hydrogen-molecule-MP2-def2-TVZPP.pmp2re
Input Energy Weighted Density       ... hydrogen-molecule-MP2-def2-TVZPP.wmp2.tmp
Input SCF Electron Density          ... hydrogen-molecule-MP2-def2-TVZPP.scfp

One-Electron Terms    ...
                        ... One-Electron Terms done
Prescreening matrices              ... done

Batch handling in the gradient evaluation:
Memory available                      ...  256.0 MB
Memory per occupied orbital in Q2     ...    0.0 MB
Memory per occupied orbital in Q3     ...    0.0 MB
Total memory requirement per |i>      ...    0.0 MB
Max. Number of orbitals possible      ...  22610
Number of orbitals treated per batch  ...      1
Number of batches to be done          ...      1
Batch   0: i=    0 ...     0

---------------------------------------
MP2 TOTAL ENERGY:       -1.164653957 Eh
---------------------------------------

The final MP2 gradient
  0:  -0.00000123  -0.00000000   0.00000000
  1:   0.00000123   0.00000000  -0.00000000

-----------------------------------
NORM OF THE MP2 GRADIENT:  0.000002
-----------------------------------

Maximum memory used throughout the entire MP2-calculation: 73.5 MB

-------------------------   --------------------
FINAL SINGLE POINT ENERGY        -1.164653957239
-------------------------   --------------------

                                *** OPTIMIZATION RUN DONE ***

                            ***************************************
                            *     ORCA property calculations      *
                            ***************************************

                                    ---------------------
                                    Active property flags
                                    ---------------------
   (+) Dipole Moment


------------------------------------------------------------------------------
                       ORCA ELECTRIC PROPERTIES CALCULATION
------------------------------------------------------------------------------

Dipole Moment Calculation                       ... on
Quadrupole Moment Calculation                   ... off
Polarizability Calculation                      ... off
GBWName                                         ... hydrogen-molecule-MP2-def2-TVZPP.gbw
Electron density                                ... hydrogen-molecule-MP2-def2-TVZPP.scfp
SHARK General Contraction Test:  Segmented basis detected
   -> Pre-screening matrix found on disk - Trying to read with NShells=12
   -> Passing Pre-screening matrix on to SHARK ...ok
   -> Leaving CheckPreScreeningMatrix
----------------------
SHARK INTEGRAL PACKAGE
----------------------

Number of atoms                             ...      2
Number of basis functions                   ...     28
Number of shells                            ...     12
Maximum angular momentum                    ...      2
Integral batch strategy                     ... SHARK/LIBINT Hybrid
RI-J (if used) integral strategy            ... SPLIT-RIJ (Revised 2003 algorithm where possible)
Printlevel                                  ...      2
Contraction scheme used                     ... SEGMENTED contraction
Coulomb Range Separation                    ... NOT USED
Exchange Range Separation                   ... NOT USED
Finite Nucleus Model                        ... NOT USED
Auxiliary Coulomb fitting basis             ... NOT available
Auxiliary J/K fitting basis                 ... NOT available
Auxiliary Correlation fitting basis         ... NOT available
Auxiliary 'external' fitting basis          ... NOT available
Integral threshold                          ...     2.500000e-11
Primitive cut-off                           ...     2.500000e-12
Primitive pair pre-selection threshold      ...     2.500000e-12

The origin for moment calculation is the CENTER OF MASS  = ( 2.692463, -0.061718  0.108168)

-------------
DIPOLE MOMENT
-------------
                                X             Y             Z
Electronic contribution:     -0.00000      -0.00000      -0.00000
Nuclear contribution   :      0.00000       0.00000       0.00000
                        -----------------------------------------
Total Dipole Moment    :     -0.00000      -0.00000      -0.00000
                        -----------------------------------------
Magnitude (a.u.)       :      0.00000
Magnitude (Debye)      :      0.00000



--------------------
Rotational spectrum 
--------------------
 
Rotational constants in cm-1:     0.000000    61.577480    61.577480 
Rotational constants in MHz :     0.000000 1846046.419085 1846046.419085 

 Dipole components along the rotational axes: 
x,y,z [a.u.] :    -0.000000    -0.000000    -0.000000 
x,y,z [Debye]:    -0.000000    -0.000000    -0.000000 

 

                         *** MP2 UNRELAXED DENSITY ***

------------------------------------------------------------------------------
                       ORCA ELECTRIC PROPERTIES CALCULATION
------------------------------------------------------------------------------

Dipole Moment Calculation                       ... on
Quadrupole Moment Calculation                   ... off
Polarizability Calculation                      ... off
GBWName                                         ... hydrogen-molecule-MP2-def2-TVZPP.gbw
Electron density                                ... hydrogen-molecule-MP2-def2-TVZPP.pmp2ur
SHARK General Contraction Test:  Segmented basis detected
   -> Pre-screening matrix found on disk - Trying to read with NShells=12
   -> Passing Pre-screening matrix on to SHARK ...ok
   -> Leaving CheckPreScreeningMatrix
----------------------
SHARK INTEGRAL PACKAGE
----------------------

Number of atoms                             ...      2
Number of basis functions                   ...     28
Number of shells                            ...     12
Maximum angular momentum                    ...      2
Integral batch strategy                     ... SHARK/LIBINT Hybrid
RI-J (if used) integral strategy            ... SPLIT-RIJ (Revised 2003 algorithm where possible)
Printlevel                                  ...      2
Contraction scheme used                     ... SEGMENTED contraction
Coulomb Range Separation                    ... NOT USED
Exchange Range Separation                   ... NOT USED
Finite Nucleus Model                        ... NOT USED
Auxiliary Coulomb fitting basis             ... NOT available
Auxiliary J/K fitting basis                 ... NOT available
Auxiliary Correlation fitting basis         ... NOT available
Auxiliary 'external' fitting basis          ... NOT available
Integral threshold                          ...     2.500000e-11
Primitive cut-off                           ...     2.500000e-12
Primitive pair pre-selection threshold      ...     2.500000e-12

The origin for moment calculation is the CENTER OF MASS  = ( 2.692463, -0.061718  0.108168)

-------------
DIPOLE MOMENT
-------------
                                X             Y             Z
Electronic contribution:     -0.00000      -0.00000      -0.00000
Nuclear contribution   :      0.00000       0.00000       0.00000
                        -----------------------------------------
Total Dipole Moment    :     -0.00000      -0.00000      -0.00000
                        -----------------------------------------
Magnitude (a.u.)       :      0.00000
Magnitude (Debye)      :      0.00000



--------------------
Rotational spectrum 
--------------------
 
Rotational constants in cm-1:     0.000000    61.577480    61.577480 
Rotational constants in MHz :     0.000000 1846046.419085 1846046.419085 

 Dipole components along the rotational axes: 
x,y,z [a.u.] :    -0.000000    -0.000000    -0.000000 
x,y,z [Debye]:    -0.000000    -0.000000    -0.000000 

 

                           *** MP2 RELAXED DENSITY ***

------------------------------------------------------------------------------
                       ORCA ELECTRIC PROPERTIES CALCULATION
------------------------------------------------------------------------------

Dipole Moment Calculation                       ... on
Quadrupole Moment Calculation                   ... off
Polarizability Calculation                      ... off
GBWName                                         ... hydrogen-molecule-MP2-def2-TVZPP.gbw
Electron density                                ... hydrogen-molecule-MP2-def2-TVZPP.pmp2re
SHARK General Contraction Test:  Segmented basis detected
   -> Pre-screening matrix found on disk - Trying to read with NShells=12
   -> Passing Pre-screening matrix on to SHARK ...ok
   -> Leaving CheckPreScreeningMatrix
----------------------
SHARK INTEGRAL PACKAGE
----------------------

Number of atoms                             ...      2
Number of basis functions                   ...     28
Number of shells                            ...     12
Maximum angular momentum                    ...      2
Integral batch strategy                     ... SHARK/LIBINT Hybrid
RI-J (if used) integral strategy            ... SPLIT-RIJ (Revised 2003 algorithm where possible)
Printlevel                                  ...      2
Contraction scheme used                     ... SEGMENTED contraction
Coulomb Range Separation                    ... NOT USED
Exchange Range Separation                   ... NOT USED
Finite Nucleus Model                        ... NOT USED
Auxiliary Coulomb fitting basis             ... NOT available
Auxiliary J/K fitting basis                 ... NOT available
Auxiliary Correlation fitting basis         ... NOT available
Auxiliary 'external' fitting basis          ... NOT available
Integral threshold                          ...     2.500000e-11
Primitive cut-off                           ...     2.500000e-12
Primitive pair pre-selection threshold      ...     2.500000e-12

The origin for moment calculation is the CENTER OF MASS  = ( 2.692463, -0.061718  0.108168)

-------------
DIPOLE MOMENT
-------------
                                X             Y             Z
Electronic contribution:     -0.00000      -0.00000      -0.00000
Nuclear contribution   :      0.00000       0.00000       0.00000
                        -----------------------------------------
Total Dipole Moment    :     -0.00000      -0.00000      -0.00000
                        -----------------------------------------
Magnitude (a.u.)       :      0.00000
Magnitude (Debye)      :      0.00000



--------------------
Rotational spectrum 
--------------------
 
Rotational constants in cm-1:     0.000000    61.577480    61.577480 
Rotational constants in MHz :     0.000000 1846046.419085 1846046.419085 

 Dipole components along the rotational axes: 
x,y,z [a.u.] :    -0.000000    -0.000000    -0.000000 
x,y,z [Debye]:    -0.000000    -0.000000    -0.000000 

 

Timings for individual modules:

Sum of individual times         ...       15.102 sec (=   0.252 min)
GTO integral calculation        ...        0.360 sec (=   0.006 min)   2.4 %
SCF iterations                  ...        1.123 sec (=   0.019 min)   7.4 %
MP2 module                      ...       13.500 sec (=   0.225 min)  89.4 %
Geometry relaxation             ...        0.119 sec (=   0.002 min)   0.8 %
                             ****ORCA TERMINATED NORMALLY****
TOTAL RUN TIME: 0 days 0 hours 0 minutes 15 seconds 408 msec
