
                                 *****************
                                 * O   R   C   A *
                                 *****************

                                            #,                                       
                                            ###                                      
                                            ####                                     
                                            #####                                    
                                            ######                                   
                                           ########,                                 
                                     ,,################,,,,,                         
                               ,,#################################,,                 
                          ,,##########################################,,             
                       ,#########################################, ''#####,          
                    ,#############################################,,   '####,        
                  ,##################################################,,,,####,       
                ,###########''''           ''''###############################       
              ,#####''   ,,,,##########,,,,          '''####'''          '####       
            ,##' ,,,,###########################,,,                        '##       
           ' ,,###''''                  '''############,,,                           
         ,,##''                                '''############,,,,        ,,,,,,###''
      ,#''                                            '''#######################'''  
     '                                                          ''''####''''         
             ,#######,   #######,   ,#######,      ##                                
            ,#'     '#,  ##    ##  ,#'     '#,    #''#        ######   ,####,        
            ##       ##  ##   ,#'  ##            #'  '#       #        #'  '#        
            ##       ##  #######   ##           ,######,      #####,   #    #        
            '#,     ,#'  ##    ##  '#,     ,#' ,#      #,         ##   #,  ,#        
             '#######'   ##     ##  '#######'  #'      '#     #####' # '####'        



                  #######################################################
                  #                        -***-                        #
                  #          Department of theory and spectroscopy      #
                  #    Directorship and core code : Frank Neese         #
                  #        Max Planck Institute fuer Kohlenforschung    #
                  #                Kaiser Wilhelm Platz 1               #
                  #                 D-45470 Muelheim/Ruhr               #
                  #                      Germany                        #
                  #                                                     #
                  #                  All rights reserved                #
                  #                        -***-                        #
                  #######################################################



                         Program Version 5.0.4 -  RELEASE  -

 With contributions from (in alphabetic order):
   Daniel Aravena         : Magnetic Suceptibility
   Michael Atanasov       : Ab Initio Ligand Field Theory (pilot matlab implementation)
   Alexander A. Auer      : GIAO ZORA, VPT2 properties, NMR spectrum
   Ute Becker             : Parallelization
   Giovanni Bistoni       : ED, misc. LED, open-shell LED, HFLD
   Martin Brehm           : Molecular dynamics
   Dmytro Bykov           : SCF Hessian
   Vijay G. Chilkuri      : MRCI spin determinant printing, contributions to CSF-ICE
   Dipayan Datta          : RHF DLPNO-CCSD density
   Achintya Kumar Dutta   : EOM-CC, STEOM-CC
   Dmitry Ganyushin       : Spin-Orbit,Spin-Spin,Magnetic field MRCI
   Miquel Garcia          : C-PCM and meta-GGA Hessian, CC/C-PCM, Gaussian charge scheme
   Yang Guo               : DLPNO-NEVPT2, F12-NEVPT2, CIM, IAO-localization
   Andreas Hansen         : Spin unrestricted coupled pair/coupled cluster methods
   Benjamin Helmich-Paris : MC-RPA, TRAH-SCF, COSX integrals
   Lee Huntington         : MR-EOM, pCC
   Robert Izsak           : Overlap fitted RIJCOSX, COSX-SCS-MP3, EOM
   Marcus Kettner         : VPT2
   Christian Kollmar      : KDIIS, OOCD, Brueckner-CCSD(T), CCSD density, CASPT2, CASPT2-K
   Simone Kossmann        : Meta GGA functionals, TD-DFT gradient, OOMP2, MP2 Hessian
   Martin Krupicka        : Initial AUTO-CI
   Lucas Lang             : DCDCAS
   Marvin Lechner         : AUTO-CI (C++ implementation), FIC-MRCC
   Dagmar Lenk            : GEPOL surface, SMD
   Dimitrios Liakos       : Extrapolation schemes; Compound Job, initial MDCI parallelization
   Dimitrios Manganas     : Further ROCIS development; embedding schemes
   Dimitrios Pantazis     : SARC Basis sets
   Anastasios Papadopoulos: AUTO-CI, single reference methods and gradients
   Taras Petrenko         : DFT Hessian,TD-DFT gradient, ASA, ECA, R-Raman, ABS, FL, XAS/XES, NRVS
   Peter Pinski           : DLPNO-MP2, DLPNO-MP2 Gradient
   Christoph Reimann      : Effective Core Potentials
   Marius Retegan         : Local ZFS, SOC
   Christoph Riplinger    : Optimizer, TS searches, QM/MM, DLPNO-CCSD(T), (RO)-DLPNO pert. Triples
   Tobias Risthaus        : Range-separated hybrids, TD-DFT gradient, RPA, STAB
   Michael Roemelt        : Original ROCIS implementation
   Masaaki Saitow         : Open-shell DLPNO-CCSD energy and density
   Barbara Sandhoefer     : DKH picture change effects
   Avijit Sen             : IP-ROCIS
   Kantharuban Sivalingam : CASSCF convergence, NEVPT2, FIC-MRCI
   Bernardo de Souza      : ESD, SOC TD-DFT
   Georgi Stoychev        : AutoAux, RI-MP2 NMR, DLPNO-MP2 response
   Willem Van den Heuvel  : Paramagnetic NMR
   Boris Wezisla          : Elementary symmetry handling
   Frank Wennmohs         : Technical directorship


 We gratefully acknowledge several colleagues who have allowed us to
 interface, adapt or use parts of their codes:
   Stefan Grimme, W. Hujo, H. Kruse, P. Pracht,  : VdW corrections, initial TS optimization,
                  C. Bannwarth, S. Ehlert          DFT functionals, gCP, sTDA/sTD-DF
   Ed Valeev, F. Pavosevic, A. Kumar             : LibInt (2-el integral package), F12 methods
   Garnet Chan, S. Sharma, J. Yang, R. Olivares  : DMRG
   Ulf Ekstrom                                   : XCFun DFT Library
   Mihaly Kallay                                 : mrcc  (arbitrary order and MRCC methods)
   Jiri Pittner, Ondrej Demel                    : Mk-CCSD
   Frank Weinhold                                : gennbo (NPA and NBO analysis)
   Christopher J. Cramer and Donald G. Truhlar   : smd solvation model
   Lars Goerigk                                  : TD-DFT with DH, B97 family of functionals
   V. Asgeirsson, H. Jonsson                     : NEB implementation
   FAccTs GmbH                                   : IRC, NEB, NEB-TS, DLPNO-Multilevel, CI-OPT
                                                   MM, QMMM, 2- and 3-layer-ONIOM, Crystal-QMMM,
                                                   LR-CPCM, SF, NACMEs, symmetry and pop. for TD-DFT,
                                                   nearIR, NL-DFT gradient (VV10), updates on ESD,
                                                   ML-optimized integration grids
   S Lehtola, MJT Oliveira, MAL Marques          : LibXC Library
   Liviu Ungur et al                             : ANISO software


 Your calculation uses the libint2 library for the computation of 2-el integrals
 For citations please refer to: http://libint.valeyev.net

 Your ORCA version has been built with support for libXC version: 5.1.0
 For citations please refer to: https://tddft.org/programs/libxc/

 This ORCA versions uses:
   CBLAS   interface :  Fast vector & matrix operations
   LAPACKE interface :  Fast linear algebra routines
   Shared memory     :  Shared parallel matrices


================================================================================

----- Orbital basis set information -----
Your calculation utilizes the basis: def2-SVP
   F. Weigend and R. Ahlrichs, Phys. Chem. Chem. Phys. 7, 3297 (2005).

----- AuxJ basis set information -----
Your calculation utilizes the auxiliary basis: def2/J
   F. Weigend, Phys. Chem. Chem. Phys. 8, 1057 (2006).

================================================================================
                                        WARNINGS
                       Please study these warnings very carefully!
================================================================================


WARNING: Geometry Optimization
  ===> : Switching off AutoStart
         For restart on a previous wavefunction, please use MOREAD

INFO   : the flag for use of the SHARK integral package has been found!

================================================================================
                                       INPUT FILE
================================================================================
NAME = water-molecule.inp
|  1> # avogadro generated ORCA input file 
|  2> # Basic Mode
|  3> # 
|  4> ! BP OPT def2-SVP
|  5> 
|  6> * xyz 0 1
|  7>    O        0.89689        0.00254       -0.03773
|  8>    H        0.60753        0.65845        0.64539
|  9>    H        1.88622        0.03222       -0.00682
| 10> *
| 11> 
| 12> 
| 13>                          ****END OF INPUT****
================================================================================

                       *****************************
                       * Geometry Optimization Run *
                       *****************************

Geometry optimization settings:
Update method            Update   .... BFGS
Choice of coordinates    CoordSys .... Z-matrix Internals
Initial Hessian          InHess   .... Almoef's Model

Convergence Tolerances:
Energy Change            TolE     ....  5.0000e-06 Eh
Max. Gradient            TolMAXG  ....  3.0000e-04 Eh/bohr
RMS Gradient             TolRMSG  ....  1.0000e-04 Eh/bohr
Max. Displacement        TolMAXD  ....  4.0000e-03 bohr
RMS Displacement         TolRMSD  ....  2.0000e-03 bohr
Strict Convergence                ....  False
------------------------------------------------------------------------------
                        ORCA OPTIMIZATION COORDINATE SETUP
------------------------------------------------------------------------------

The optimization will be done in new redundant internal coordinates
Making redundant internal coordinates   ...  (new redundants) done
Evaluating the initial hessian          ...  (Almloef) done
Evaluating the coordinates              ...  done
Calculating the B-matrix                .... done
Calculating the G-matrix                .... done
Diagonalizing the G-matrix              .... done
The first mode is                       ....    0
The number of degrees of freedom        ....    3

    -----------------------------------------------------------------
                    Redundant Internal Coordinates


    -----------------------------------------------------------------
         Definition                    Initial Value    Approx d2E/dq
    -----------------------------------------------------------------
      1. B(H   1,O   0)                  0.9903         0.465265   
      2. B(H   2,O   0)                  0.9903         0.465257   
      3. A(H   1,O   0,H   2)          104.5100         0.310409   
    -----------------------------------------------------------------

Number of atoms                         .... 3
Number of degrees of freedom            .... 3

         *************************************************************
         *                GEOMETRY OPTIMIZATION CYCLE   1            *
         *************************************************************
---------------------------------
CARTESIAN COORDINATES (ANGSTROEM)
---------------------------------
  O      0.896890    0.002540   -0.037730
  H      0.607530    0.658450    0.645390
  H      1.886220    0.032220   -0.006820

----------------------------
CARTESIAN COORDINATES (A.U.)
----------------------------
  NO LB      ZA    FRAG     MASS         X           Y           Z
   0 O     8.0000    0    15.999    1.694876    0.004800   -0.071299
   1 H     1.0000    0     1.008    1.148065    1.244290    1.219610
   2 H     1.0000    0     1.008    3.564439    0.060887   -0.012888

--------------------------------
INTERNAL COORDINATES (ANGSTROEM)
--------------------------------
 O      0   0   0     0.000000000000     0.00000000     0.00000000
 H      1   0   0     0.990252529459     0.00000000     0.00000000
 H      1   2   0     0.990257632841   104.51001646     0.00000000

---------------------------
INTERNAL COORDINATES (A.U.)
---------------------------
 O      0   0   0     0.000000000000     0.00000000     0.00000000
 H      1   0   0     1.871306084100     0.00000000     0.00000000
 H      1   2   0     1.871315728095   104.51001646     0.00000000

---------------------
BASIS SET INFORMATION
---------------------
There are 2 groups of distinct atoms

 Group   1 Type O   : 7s4p1d contracted to 3s2p1d pattern {511/31/1}
 Group   2 Type H   : 4s1p contracted to 2s1p pattern {31/1}

Atom   0O    basis set group =>   1
Atom   1H    basis set group =>   2
Atom   2H    basis set group =>   2
---------------------------------
AUXILIARY/J BASIS SET INFORMATION
---------------------------------
There are 2 groups of distinct atoms

 Group   1 Type O   : 12s5p4d2f1g contracted to 6s4p3d1f1g pattern {711111/2111/211/2/1}
 Group   2 Type H   : 5s2p1d contracted to 3s1p1d pattern {311/2/1}

Atom   0O    basis set group =>   1
Atom   1H    basis set group =>   2
Atom   2H    basis set group =>   2
------------------------------------------------------------------------------
                           ORCA GTO INTEGRAL CALCULATION
                           -- RI-GTO INTEGRALS CHOSEN --
------------------------------------------------------------------------------
------------------------------------------------------------------------------
                   ___                                                        
                  /   \      - P O W E R E D   B Y -                         
                 /     \                                                     
                 |  |  |   _    _      __       _____    __    __             
                 |  |  |  | |  | |    /  \     |  _  \  |  |  /  |          
                  \  \/   | |  | |   /    \    | | | |  |  | /  /          
                 / \  \   | |__| |  /  /\  \   | |_| |  |  |/  /          
                |  |  |   |  __  | /  /__\  \  |    /   |      \           
                |  |  |   | |  | | |   __   |  |    \   |  |\   \          
                \     /   | |  | | |  |  |  |  | |\  \  |  | \   \       
                 \___/    |_|  |_| |__|  |__|  |_| \__\ |__|  \__/        
                                                                              
                      - O R C A' S   B I G   F R I E N D -                    
                                      &                                       
                       - I N T E G R A L  F E E D E R -                       
                                                                              
 v1 FN, 2020, v2 2021                                                         
------------------------------------------------------------------------------


Reading SHARK input file water-molecule.SHARKINP.tmp ... ok
----------------------
SHARK INTEGRAL PACKAGE
----------------------

Number of atoms                             ...      3
Number of basis functions                   ...     24
Number of shells                            ...     12
Maximum angular momentum                    ...      2
Integral batch strategy                     ... SHARK/LIBINT Hybrid
RI-J (if used) integral strategy            ... SPLIT-RIJ (Revised 2003 algorithm where possible)
Printlevel                                  ...      1
Contraction scheme used                     ... SEGMENTED contraction
Coulomb Range Separation                    ... NOT USED
Exchange Range Separation                   ... NOT USED
Finite Nucleus Model                        ... NOT USED
Auxiliary Coulomb fitting basis             ... AVAILABLE
   # of basis functions in Aux-J            ...     71
   # of shells in Aux-J                     ...     25
   Maximum angular momentum in Aux-J        ...      4
Auxiliary J/K fitting basis                 ... NOT available
Auxiliary Correlation fitting basis         ... NOT available
Auxiliary 'external' fitting basis          ... NOT available
Integral threshold                          ...     2.500000e-11
Primitive cut-off                           ...     2.500000e-12
Primitive pair pre-selection threshold      ...     2.500000e-12

Calculating pre-screening integrals         ... done (  0.0 sec) Dimension = 12
Organizing shell pair data                  ... done (  0.0 sec)
Shell pair information
Total number of shell pairs                 ...        78
Shell pairs after pre-screening             ...        78
Total number of primitive shell pairs       ...       272
Primitive shell pairs kept                  ...       265
          la=0 lb=0:     28 shell pairs
          la=1 lb=0:     28 shell pairs
          la=1 lb=1:     10 shell pairs
          la=2 lb=0:      7 shell pairs
          la=2 lb=1:      4 shell pairs
          la=2 lb=2:      1 shell pairs

Calculating one electron integrals          ... done (  0.0 sec)
Calculating RI/J V-Matrix + Cholesky decomp.... done (  0.0 sec)
Calculating Nuclear repulsion               ... done (  0.0 sec) ENN=      8.888056267252 Eh

SHARK setup successfully completed in   0.1 seconds

Maximum memory used throughout the entire GTOINT-calculation: 8.7 MB
-------------------------------------------------------------------------------
                                 ORCA SCF
-------------------------------------------------------------------------------

------------
SCF SETTINGS
------------
Hamiltonian:
 Density Functional     Method          .... DFT(GTOs)
 Exchange Functional    Exchange        .... B88
   X-Alpha parameter    XAlpha          ....  0.666667
   Becke's b parameter  XBeta           ....  0.004200
 Correlation Functional Correlation     .... P86
 LDA part of GGA corr.  LDAOpt          .... PW91-LDA
 Gradients option       PostSCFGGA      .... off
   Density functional embedding theory  .... OFF
   NL short-range parameter             ....  4.400000
 RI-approximation to the Coulomb term is turned on
   Number of AuxJ basis functions       .... 71


General Settings:
 Integral files         IntName         .... water-molecule
 Hartree-Fock type      HFTyp           .... RHF
 Total Charge           Charge          ....    0
 Multiplicity           Mult            ....    1
 Number of Electrons    NEL             ....   10
 Basis Dimension        Dim             ....   24
 Nuclear Repulsion      ENuc            ....      8.8880562673 Eh

Convergence Acceleration:
 DIIS                   CNVDIIS         .... on
   Start iteration      DIISMaxIt       ....    12
   Startup error        DIISStart       ....  0.200000
   # of expansion vecs  DIISMaxEq       ....     5
   Bias factor          DIISBfac        ....   1.050
   Max. coefficient     DIISMaxC        ....  10.000
 Trust-Rad. Augm. Hess. CNVTRAH         .... auto
   Auto Start mean grad. ratio tolernc. ....  1.125000
   Auto Start start iteration           ....    20
   Auto Start num. interpolation iter.  ....    10
   Max. Number of Micro iterations      ....    16
   Max. Number of Macro iterations      .... Maxiter - #DIIS iter
   Number of Davidson start vectors     ....     2
   Converg. threshold I  (grad. norm)   ....   1.000e-05
   Converg. threshold II (energy diff.) ....   1.000e-08
   Grad. Scal. Fac. for Micro threshold ....   0.100
   Minimum threshold for Micro iter.    ....   0.010
   NR start threshold (gradient norm)   ....   0.001
   Initial trust radius                 ....   0.400
   Minimum AH scaling param. (alpha)    ....   1.000
   Maximum AH scaling param. (alpha)    .... 1000.000
   Orbital update algorithm             .... Taylor
   White noise on init. David. guess    .... on
   Maximum white noise                  ....   0.010
   Quad. conv. algorithm                .... NR
 SOSCF                  CNVSOSCF        .... on
   Start iteration      SOSCFMaxIt      ....   150
   Startup grad/error   SOSCFStart      ....  0.003300
 Level Shifting         CNVShift        .... on
   Level shift para.    LevelShift      ....    0.2500
   Turn off err/grad.   ShiftErr        ....    0.0010
 Zerner damping         CNVZerner       .... off
 Static damping         CNVDamp         .... on
   Fraction old density DampFac         ....    0.7000
   Max. Damping (<1)    DampMax         ....    0.9800
   Min. Damping (>=0)   DampMin         ....    0.0000
   Turn off err/grad.   DampErr         ....    0.1000
 Fernandez-Rico         CNVRico         .... off

SCF Procedure:
 Maximum # iterations   MaxIter         ....   125
 SCF integral mode      SCFMode         .... Direct
   Integral package                     .... SHARK and LIBINT hybrid scheme
 Reset frequency        DirectResetFreq ....    20
 Integral Threshold     Thresh          ....  2.500e-11 Eh
 Primitive CutOff       TCut            ....  2.500e-12 Eh

Convergence Tolerance:
 Convergence Check Mode ConvCheckMode   .... Total+1el-Energy
 Convergence forced     ConvForced      .... 0
 Energy Change          TolE            ....  1.000e-08 Eh
 1-El. energy change                    ....  1.000e-05 Eh
 Orbital Gradient       TolG            ....  1.000e-05
 Orbital Rotation angle TolX            ....  1.000e-05
 DIIS Error             TolErr          ....  5.000e-07


Diagonalization of the overlap matrix:
Smallest eigenvalue                        ... 4.008e-02
Time for diagonalization                   ...    0.008 sec
Threshold for overlap eigenvalues          ... 1.000e-08
Number of eigenvalues below threshold      ... 0
Time for construction of square roots      ...    0.002 sec
Total time needed                          ...    0.010 sec

Time for model grid setup =    0.013 sec

------------------------------
INITIAL GUESS: MODEL POTENTIAL
------------------------------
Loading Hartree-Fock densities                     ... done
Calculating cut-offs                               ... done
Initializing the effective Hamiltonian             ... done
Setting up the integral package (SHARK)            ... done
Starting the Coulomb interaction                   ... done (   0.0 sec)
Reading the grid                                   ... done
Mapping shells                                     ... done
Starting the XC term evaluation                    ... done (   0.0 sec)
  promolecular density results
     # of electrons  =      9.998846767
     EX              =     -8.769201599
     EC              =     -0.350738271
     EX+EC           =     -9.119939871
Transforming the Hamiltonian                       ... done (   0.0 sec)
Diagonalizing the Hamiltonian                      ... done (   0.0 sec)
Back transforming the eigenvectors                 ... done (   0.0 sec)
Now organizing SCF variables                       ... done
                      ------------------
                      INITIAL GUESS DONE (   0.0 sec)
                      ------------------
-------------------
DFT GRID GENERATION
-------------------

General Integration Accuracy     IntAcc      ... 4.388
Radial Grid Type                 RadialGrid  ... OptM3 with GC (2021)
Angular Grid (max. ang.)         AngularGrid ... 4 (Lebedev-302)
Angular grid pruning method      GridPruning ... 4 (adaptive)
Weight generation scheme         WeightScheme... Becke
Basis function cutoff            BFCut       ... 1.0000e-11
Integration weight cutoff        WCut        ... 1.0000e-14
Angular grids for H and He will be reduced by one unit
Partially contracted basis set               ... off
Rotationally invariant grid construction     ... off

Total number of grid points                  ...    12751
Total number of batches                      ...      201
Average number of points per batch           ...       63
Average number of grid points per atom       ...     4250
Time for grid setup =    0.042 sec

--------------
SCF ITERATIONS
--------------
ITER       Energy         Delta-E        Max-DP      RMS-DP      [F,P]     Damp
               ***  Starting incremental Fock matrix formation  ***
  0    -76.2734411356   0.000000000000 0.08869199  0.00970305  0.2839519 0.7000
  1    -76.3183435088  -0.044902373208 0.04661179  0.00516030  0.1045919 0.7000
                               ***Turning on DIIS***
  2    -76.3307978239  -0.012454315022 0.04046513  0.00488341  0.0108862 0.0000
  3    -76.3562198862  -0.025422062317 0.02486841  0.00289124  0.0619034 0.0000
  4    -76.3600417218  -0.003821835628 0.00497939  0.00070487  0.0092124 0.0000
                      *** Initiating the SOSCF procedure ***
                           *** Shutting down DIIS ***
                      *** Re-Reading the Fockian *** 
                      *** Removing any level shift *** 
ITER      Energy       Delta-E        Grad      Rot      Max-DP    RMS-DP
  5    -76.36017188  -0.0001301626  0.001148  0.001148  0.002183  0.000244
               *** Restarting incremental Fock matrix formation ***
  6    -76.36018144  -0.0000095566  0.000509  0.001526  0.002115  0.000187
  7    -76.36018213  -0.0000006910  0.000452  0.000280  0.000554  0.000056
  8    -76.36018270  -0.0000005649  0.000217  0.000334  0.000335  0.000044
  9    -76.36018286  -0.0000001610  0.000028  0.000076  0.000079  0.000009
 10    -76.36018286  -0.0000000060  0.000006  0.000004  0.000008  0.000001
                 **** Energy Check signals convergence ****
              ***Rediagonalizing the Fockian in SOSCF/NRSCF***

               *****************************************************
               *                     SUCCESS                       *
               *           SCF CONVERGED AFTER  11 CYCLES          *
               *****************************************************


----------------
TOTAL SCF ENERGY
----------------

Total Energy       :          -76.36018286 Eh           -2077.86621 eV

Components:
Nuclear Repulsion  :            8.88805627 Eh             241.85631 eV
Electronic Energy  :          -85.24823913 Eh           -2319.72252 eV
One Electron Energy:         -122.53946795 Eh           -3334.46844 eV
Two Electron Energy:           37.29122881 Eh            1014.74592 eV

Virial components:
Potential Energy   :         -152.09552149 Eh           -4138.72955 eV
Kinetic Energy     :           75.73533863 Eh            2060.86334 eV
Virial Ratio       :            2.00825037


DFT components:
N(Alpha)           :        5.000000061389 electrons
N(Beta)            :        5.000000061389 electrons
N(Total)           :       10.000000122779 electrons
E(X)               :       -8.965221010045 Eh       
E(C)               :       -0.363041654244 Eh       
E(XC)              :       -9.328262664288 Eh       
DFET-embed. en.    :        0.000000000000 Eh       

---------------
SCF CONVERGENCE
---------------

  Last Energy change         ...   -1.5298e-10  Tolerance :   1.0000e-08
  Last MAX-Density change    ...    1.4072e-06  Tolerance :   1.0000e-07
  Last RMS-Density change    ...    2.0072e-07  Tolerance :   5.0000e-09
  Last Orbital Gradient      ...    1.1699e-06  Tolerance :   1.0000e-05
  Last Orbital Rotation      ...    1.7971e-06  Tolerance :   1.0000e-05

             **** THE GBW FILE WAS UPDATED (water-molecule.gbw) ****
             **** DENSITY water-molecule.scfp WAS UPDATED ****
             **** ENERGY FILE WAS UPDATED (water-molecule.en.tmp) ****
             **** THE GBW FILE WAS UPDATED (water-molecule.gbw) ****
             **** DENSITY water-molecule.scfp WAS UPDATED ****
----------------
ORBITAL ENERGIES
----------------

  NO   OCC          E(Eh)            E(eV) 
   0   2.0000     -18.762517      -510.5540 
   1   2.0000      -0.882810       -24.0225 
   2   2.0000      -0.454239       -12.3605 
   3   2.0000      -0.308054        -8.3826 
   4   2.0000      -0.231063        -6.2875 
   5   0.0000       0.025563         0.6956 
   6   0.0000       0.101041         2.7495 
   7   0.0000       0.505534        13.7563 
   8   0.0000       0.551490        15.0068 
   9   0.0000       0.860418        23.4132 
  10   0.0000       0.862637        23.4735 
  11   0.0000       0.953708        25.9517 
  12   0.0000       1.036637        28.2083 
  13   0.0000       1.276976        34.7483 
  14   0.0000       1.359548        36.9952 
  15   0.0000       1.484280        40.3893 
  16   0.0000       1.688035        45.9338 
  17   0.0000       2.071935        56.3802 
  18   0.0000       2.121231        57.7216 
  19   0.0000       2.841549        77.3225 
  20   0.0000       2.885474        78.5178 
  21   0.0000       3.051796        83.0436 
  22   0.0000       3.374371        91.8213 
  23   0.0000       3.691616       100.4540 

                    ********************************
                    * MULLIKEN POPULATION ANALYSIS *
                    ********************************

-----------------------
MULLIKEN ATOMIC CHARGES
-----------------------
   0 O :   -0.317885
   1 H :    0.158942
   2 H :    0.158943
Sum of atomic charges:   -0.0000000

--------------------------------
MULLIKEN REDUCED ORBITAL CHARGES
--------------------------------
  0 O s       :     3.714639  s :     3.714639
      pz      :     1.655979  p :     4.593571
      px      :     1.257835
      py      :     1.679757
      dz2     :     0.001776  d :     0.009675
      dxz     :     0.000704
      dyz     :     0.003021
      dx2y2   :     0.003495
      dxy     :     0.000679
  1 H s       :     0.774258  s :     0.774258
      pz      :     0.024943  p :     0.066800
      px      :     0.017367
      py      :     0.024490
  2 H s       :     0.774258  s :     0.774258
      pz      :     0.017205  p :     0.066799
      px      :     0.032238
      py      :     0.017357


                     *******************************
                     * LOEWDIN POPULATION ANALYSIS *
                     *******************************

----------------------
LOEWDIN ATOMIC CHARGES
----------------------
   0 O :   -0.170387
   1 H :    0.085192
   2 H :    0.085195

-------------------------------
LOEWDIN REDUCED ORBITAL CHARGES
-------------------------------
  0 O s       :     3.468623  s :     3.468623
      pz      :     1.665184  p :     4.683902
      px      :     1.335180
      py      :     1.683538
      dz2     :     0.002856  d :     0.017862
      dxz     :     0.000867
      dyz     :     0.005846
      dx2y2   :     0.007483
      dxy     :     0.000810
  1 H s       :     0.749806  s :     0.749806
      pz      :     0.067860  p :     0.165002
      px      :     0.030703
      py      :     0.066439
  2 H s       :     0.749806  s :     0.749806
      pz      :     0.039754  p :     0.164999
      px      :     0.084717
      py      :     0.040528


                      *****************************
                      * MAYER POPULATION ANALYSIS *
                      *****************************

  NA   - Mulliken gross atomic population
  ZA   - Total nuclear charge
  QA   - Mulliken gross atomic charge
  VA   - Mayer's total valence
  BVA  - Mayer's bonded valence
  FA   - Mayer's free valence

  ATOM       NA         ZA         QA         VA         BVA        FA
  0 O      8.3179     8.0000    -0.3179     2.0030     2.0030    -0.0000
  1 H      0.8411     1.0000     0.1589     1.0080     1.0080     0.0000
  2 H      0.8411     1.0000     0.1589     1.0080     1.0080     0.0000

  Mayer bond orders larger than 0.100000
B(  0-O ,  1-H ) :   1.0015 B(  0-O ,  2-H ) :   1.0015 

-------
TIMINGS
-------

Total SCF time: 0 days 0 hours 0 min 0 sec 

Total time                  ....       0.621 sec
Sum of individual times     ....       0.522 sec  ( 84.1%)

Fock matrix formation       ....       0.405 sec  ( 65.2%)
  Split-RI-J                ....       0.031 sec  (  7.7% of F)
  XC integration            ....       0.298 sec  ( 73.6% of F)
    Basis function eval.    ....       0.086 sec  ( 28.9% of XC)
    Density eval.           ....       0.070 sec  ( 23.5% of XC)
    XC-Functional eval.     ....       0.066 sec  ( 22.1% of XC)
    XC-Potential eval.      ....       0.019 sec  (  6.4% of XC)
Diagonalization             ....       0.003 sec  (  0.5%)
Density matrix formation    ....       0.000 sec  (  0.0%)
Population analysis         ....       0.012 sec  (  1.9%)
Initial guess               ....       0.015 sec  (  2.4%)
Orbital Transformation      ....       0.000 sec  (  0.0%)
Orbital Orthonormalization  ....       0.000 sec  (  0.0%)
DIIS solution               ....       0.023 sec  (  3.7%)
SOSCF solution              ....       0.009 sec  (  1.4%)
Grid generation             ....       0.055 sec  (  8.9%)

Maximum memory used throughout the entire SCF-calculation: 7.6 MB

-------------------------   --------------------
FINAL SINGLE POINT ENERGY       -76.360182863985
-------------------------   --------------------

------------------------------------------------------------------------------
                         ORCA SCF GRADIENT CALCULATION
------------------------------------------------------------------------------

Gradient of the Kohn-Sham DFT energy:
Kohn-Sham wavefunction type      ... RKS
Hartree-Fock exchange scaling    ...    0.000
Number of operators              ...    1
Number of atoms                  ...    3
Basis set dimensions             ...   24
Integral neglect threshold       ... 2.5e-11
Integral primitive cutoff        ... 2.5e-12
SHARK Integral package           ... ON

Nuc. rep. gradient       (SHARK) ... done (  0.0 sec)
HCore & Overlap gradient (SHARK) ... done (  0.0 sec)
RI-J gradient            (SHARK) ... done (  0.0 sec)
Exchange-correlation gradient    ... done

------------------
CARTESIAN GRADIENT
------------------

   1   O   :   -0.006295211   -0.006160930   -0.006421901
   2   H   :   -0.008382230    0.008722328    0.009089466
   3   H   :    0.014677441   -0.002561398   -0.002667565

Difference to translation invariance:
           :   -0.0000000000   -0.0000000000   -0.0000000000

Difference to rotation invariance:
           :    0.0000065653   -0.0000059709    0.0000083170

Norm of the cartesian gradient     ...    0.0240185486
RMS gradient                       ...    0.0080061829
MAX gradient                       ...    0.0146774410

-------
TIMINGS
-------

Total SCF gradient time            ...        0.189 sec

One electron gradient       ....       0.007 sec  (  3.7%)
RI-J Coulomb gradient       ....       0.044 sec  ( 23.3%)
XC gradient                 ....       0.097 sec  ( 51.3%)

Maximum memory used throughout the entire SCFGRAD-calculation: 5.3 MB
------------------------------------------------------------------------------
                         ORCA GEOMETRY RELAXATION STEP
------------------------------------------------------------------------------

Reading the OPT-File                    .... done
Getting information on internals        .... done
Copying old internal coords+grads       .... done
Making the new internal coordinates     .... (new redundants).... done
Validating the new internal coordinates .... (new redundants).... done
Calculating the B-matrix                .... done
Calculating the G,G- and P matrices     .... done
Transforming gradient to internals      .... done
Projecting the internal gradient        .... done
Number of atoms                         ....   3
Number of internal coordinates          ....   3
Current Energy                          ....   -76.360182864 Eh
Current gradient norm                   ....     0.024018549 Eh/bohr
Maximum allowed component of the step   ....  0.300
Current trust radius                    ....  0.300
Evaluating the initial hessian          ....  (Almloef) done
Projecting the Hessian                  .... done
Forming the augmented Hessian           .... done
Diagonalizing the augmented Hessian     .... done
Last element of RFO vector              ....  0.998697184
Lowest eigenvalues of augmented Hessian:
 -0.001112689  0.310618857  0.465261023
Length of the computed step             ....  0.051095324
The final length of the internal step   ....  0.051095324
Converting the step to cartesian space:
 Initial RMS(Int)=    0.0294998992
Transforming coordinates:
 Iter   0:  RMS(Cart)=    0.0186168540 RMS(Int)=    0.0295169289
 Iter   1:  RMS(Cart)=    0.0001289804 RMS(Int)=    0.0002897579
 Iter   2:  RMS(Cart)=    0.0000020139 RMS(Int)=    0.0000053064
 Iter   3:  RMS(Cart)=    0.0000000236 RMS(Int)=    0.0000000501
done
Storing new coordinates                 .... done

                                .--------------------.
          ----------------------|Geometry convergence|-------------------------
          Item                value                   Tolerance       Converged
          ---------------------------------------------------------------------
          RMS gradient        0.0127312464            0.0001000000      NO
          MAX gradient        0.0145024988            0.0003000000      NO
          RMS step            0.0294998992            0.0020000000      NO
          MAX step            0.0310965937            0.0040000000      NO
          ........................................................
          Max(Bonds)      0.0165      Max(Angles)    1.49
          Max(Dihed)        0.00      Max(Improp)    0.00
          ---------------------------------------------------------------------

The optimization has not yet converged - more geometry cycles are needed


    ---------------------------------------------------------------------------
                         Redundant Internal Coordinates
                            (Angstroem and degrees)

        Definition                    Value    dE/dq     Step     New-Value
    ----------------------------------------------------------------------------
     1. B(H   1,O   0)                0.9903  0.014498 -0.0165    0.9738   
     2. B(H   2,O   0)                0.9903  0.014502 -0.0165    0.9738   
     3. A(H   1,O   0,H   2)          104.51  0.008108   -1.49    103.02   
    ----------------------------------------------------------------------------

         *************************************************************
         *                GEOMETRY OPTIMIZATION CYCLE   2            *
         *************************************************************
---------------------------------
CARTESIAN COORDINATES (ANGSTROEM)
---------------------------------
  O      0.896931    0.002578   -0.037691
  H      0.624519    0.650101    0.636695
  H      1.869190    0.040531    0.001836

----------------------------
CARTESIAN COORDINATES (A.U.)
----------------------------
  NO LB      ZA    FRAG     MASS         X           Y           Z
   0 O     8.0000    0    15.999    1.694954    0.004871   -0.071225
   1 H     1.0000    0     1.008    1.180171    1.228513    1.203179
   2 H     1.0000    0     1.008    3.532257    0.076592    0.003469

--------------------------------
INTERNAL COORDINATES (ANGSTROEM)
--------------------------------
 O      0   0   0     0.000000000000     0.00000000     0.00000000
 H      1   0   0     0.973802098098     0.00000000     0.00000000
 H      1   2   0     0.973802024127   103.01884572     0.00000000

---------------------------
INTERNAL COORDINATES (A.U.)
---------------------------
 O      0   0   0     0.000000000000     0.00000000     0.00000000
 H      1   0   0     1.840219274043     0.00000000     0.00000000
 H      1   2   0     1.840219134257   103.01884572     0.00000000

------------------------------------------------------------------------------
                   ___                                                        
                  /   \      - P O W E R E D   B Y -                         
                 /     \                                                     
                 |  |  |   _    _      __       _____    __    __             
                 |  |  |  | |  | |    /  \     |  _  \  |  |  /  |          
                  \  \/   | |  | |   /    \    | | | |  |  | /  /          
                 / \  \   | |__| |  /  /\  \   | |_| |  |  |/  /          
                |  |  |   |  __  | /  /__\  \  |    /   |      \           
                |  |  |   | |  | | |   __   |  |    \   |  |\   \          
                \     /   | |  | | |  |  |  |  | |\  \  |  | \   \       
                 \___/    |_|  |_| |__|  |__|  |_| \__\ |__|  \__/        
                                                                              
                      - O R C A' S   B I G   F R I E N D -                    
                                      &                                       
                       - I N T E G R A L  F E E D E R -                       
                                                                              
 v1 FN, 2020, v2 2021                                                         
------------------------------------------------------------------------------


Reading SHARK input file water-molecule.SHARKINP.tmp ... ok
----------------------
SHARK INTEGRAL PACKAGE
----------------------

Number of atoms                             ...      3
Number of basis functions                   ...     24
Number of shells                            ...     12
Maximum angular momentum                    ...      2
Integral batch strategy                     ... SHARK/LIBINT Hybrid
RI-J (if used) integral strategy            ... SPLIT-RIJ (Revised 2003 algorithm where possible)
Printlevel                                  ...      1
Contraction scheme used                     ... SEGMENTED contraction
Coulomb Range Separation                    ... NOT USED
Exchange Range Separation                   ... NOT USED
Finite Nucleus Model                        ... NOT USED
Auxiliary Coulomb fitting basis             ... AVAILABLE
   # of basis functions in Aux-J            ...     71
   # of shells in Aux-J                     ...     25
   Maximum angular momentum in Aux-J        ...      4
Auxiliary J/K fitting basis                 ... NOT available
Auxiliary Correlation fitting basis         ... NOT available
Auxiliary 'external' fitting basis          ... NOT available
Integral threshold                          ...     2.500000e-11
Primitive cut-off                           ...     2.500000e-12
Primitive pair pre-selection threshold      ...     2.500000e-12

Calculating pre-screening integrals         ... done (  0.0 sec) Dimension = 12
Organizing shell pair data                  ... done (  0.0 sec)
Shell pair information
Total number of shell pairs                 ...        78
Shell pairs after pre-screening             ...        78
Total number of primitive shell pairs       ...       272
Primitive shell pairs kept                  ...       265
          la=0 lb=0:     28 shell pairs
          la=1 lb=0:     28 shell pairs
          la=1 lb=1:     10 shell pairs
          la=2 lb=0:      7 shell pairs
          la=2 lb=1:      4 shell pairs
          la=2 lb=2:      1 shell pairs

Calculating one electron integrals          ... done (  0.0 sec)
Calculating RI/J V-Matrix + Cholesky decomp.... done (  0.0 sec)
Calculating Nuclear repulsion               ... done (  0.0 sec) ENN=      9.041752054852 Eh

SHARK setup successfully completed in   0.1 seconds

Maximum memory used throughout the entire GTOINT-calculation: 8.7 MB

Diagonalization of the overlap matrix:
Smallest eigenvalue                        ... 3.846e-02
Time for diagonalization                   ...    0.001 sec
Threshold for overlap eigenvalues          ... 1.000e-08
Number of eigenvalues below threshold      ... 0
Time for construction of square roots      ...    0.001 sec
Total time needed                          ...    0.002 sec

-------------------
DFT GRID GENERATION
-------------------

General Integration Accuracy     IntAcc      ... 4.388
Radial Grid Type                 RadialGrid  ... OptM3 with GC (2021)
Angular Grid (max. ang.)         AngularGrid ... 4 (Lebedev-302)
Angular grid pruning method      GridPruning ... 4 (adaptive)
Weight generation scheme         WeightScheme... Becke
Basis function cutoff            BFCut       ... 1.0000e-11
Integration weight cutoff        WCut        ... 1.0000e-14
Angular grids for H and He will be reduced by one unit
Partially contracted basis set               ... off
Rotationally invariant grid construction     ... off

Total number of grid points                  ...    12750
Total number of batches                      ...      201
Average number of points per batch           ...       63
Average number of grid points per atom       ...     4250
Time for grid setup =    0.043 sec

--------------
SCF ITERATIONS
--------------
ITER       Energy         Delta-E        Max-DP      RMS-DP      [F,P]     Damp
               ***  Starting incremental Fock matrix formation  ***
  0    -76.3605855862   0.000000000000 0.00251093  0.00033980  0.0055449 0.7000
                      *** Initiating the SOSCF procedure ***
                      *** Re-Reading the Fockian *** 
                      *** Removing any level shift *** 
ITER      Energy       Delta-E        Grad      Rot      Max-DP    RMS-DP
  1    -76.36063781  -0.0000522220  0.000893  0.000893  0.007250  0.000910
               *** Restarting incremental Fock matrix formation ***
  2    -76.36074486  -0.0001070503  0.001387  0.001532  0.002867  0.000293
  3    -76.36073769   0.0000071715  0.002108  0.000957  0.001757  0.000196
  4    -76.36075055  -0.0000128654  0.000123  0.000120  0.000220  0.000023
  5    -76.36075061  -0.0000000580  0.000068  0.000038  0.000062  0.000007
                  ***Gradient check signals convergence***
              ***Rediagonalizing the Fockian in SOSCF/NRSCF***

               *****************************************************
               *                     SUCCESS                       *
               *           SCF CONVERGED AFTER   6 CYCLES          *
               *****************************************************

Total Energy       :          -76.36075063 Eh           -2077.88166 eV
  Last Energy change         ...   -1.9287e-08  Tolerance :   1.0000e-08
  Last MAX-Density change    ...    1.8718e-06  Tolerance :   1.0000e-07
             **** THE GBW FILE WAS UPDATED (water-molecule.gbw) ****
             **** DENSITY water-molecule.scfp WAS UPDATED ****
             **** ENERGY FILE WAS UPDATED (water-molecule.en.tmp) ****
             **** THE GBW FILE WAS UPDATED (water-molecule.gbw) ****
             **** DENSITY water-molecule.scfp WAS UPDATED ****
Total SCF time: 0 days 0 hours 0 min 0 sec 

Maximum memory used throughout the entire SCF-calculation: 7.6 MB

-------------------------   --------------------
FINAL SINGLE POINT ENERGY       -76.360750629672
-------------------------   --------------------

------------------------------------------------------------------------------
                         ORCA SCF GRADIENT CALCULATION
------------------------------------------------------------------------------

Gradient of the Kohn-Sham DFT energy:
Kohn-Sham wavefunction type      ... RKS
Hartree-Fock exchange scaling    ...    0.000
Number of operators              ...    1
Number of atoms                  ...    3
Basis set dimensions             ...   24
Integral neglect threshold       ... 2.5e-11
Integral primitive cutoff        ... 2.5e-12
SHARK Integral package           ... ON

Nuc. rep. gradient       (SHARK) ... done (  0.0 sec)
HCore & Overlap gradient (SHARK) ... done (  0.0 sec)
RI-J gradient            (SHARK) ... done (  0.0 sec)
Exchange-correlation gradient    ... done

------------------
CARTESIAN GRADIENT
------------------

   1   O   :    0.001733177    0.001701201    0.001766043
   2   H   :   -0.000912014   -0.000832155   -0.000861078
   3   H   :   -0.000821164   -0.000869045   -0.000904965

Difference to translation invariance:
           :   -0.0000000000   -0.0000000000    0.0000000000

Difference to rotation invariance:
           :    0.0000068586   -0.0000041822    0.0000065525

Norm of the cartesian gradient     ...    0.0036784662
RMS gradient                       ...    0.0012261554
MAX gradient                       ...    0.0017660431

-------
TIMINGS
-------

Total SCF gradient time            ...        0.161 sec

One electron gradient       ....       0.003 sec  (  1.9%)
RI-J Coulomb gradient       ....       0.031 sec  ( 19.3%)
XC gradient                 ....       0.093 sec  ( 57.8%)

Maximum memory used throughout the entire SCFGRAD-calculation: 5.3 MB
------------------------------------------------------------------------------
                         ORCA GEOMETRY RELAXATION STEP
------------------------------------------------------------------------------

Reading the OPT-File                    .... done
Getting information on internals        .... done
Copying old internal coords+grads       .... done
Making the new internal coordinates     .... (new redundants).... done
Validating the new internal coordinates .... (new redundants).... done
Calculating the B-matrix                .... done
Calculating the G,G- and P matrices     .... done
Transforming gradient to internals      .... done
Projecting the internal gradient        .... done
Number of atoms                         ....   3
Number of internal coordinates          ....   3
Current Energy                          ....   -76.360750630 Eh
Current gradient norm                   ....     0.003678466 Eh/bohr
Maximum allowed component of the step   ....  0.300
Current trust radius                    ....  0.300
Updating the Hessian (BFGS)             .... done
Forming the augmented Hessian           .... done
Diagonalizing the augmented Hessian     .... done
Last element of RFO vector              ....  0.999968968
Lowest eigenvalues of augmented Hessian:
 -0.000019439  0.278038197  0.465261022
Length of the computed step             ....  0.007878289
The final length of the internal step   ....  0.007878289
Converting the step to cartesian space:
 Initial RMS(Int)=    0.0045485322
Transforming coordinates:
 Iter   0:  RMS(Cart)=    0.0023232382 RMS(Int)=    0.0045480346
 Iter   1:  RMS(Cart)=    0.0000065948 RMS(Int)=    0.0000114200
 Iter   2:  RMS(Cart)=    0.0000000149 RMS(Int)=    0.0000000339
done
Storing new coordinates                 .... done

                                .--------------------.
          ----------------------|Geometry convergence|-------------------------
          Item                value                   Tolerance       Converged
          ---------------------------------------------------------------------
          Energy change      -0.0005677657            0.0000050000      NO
          RMS gradient        0.0014763799            0.0001000000      NO
          MAX gradient        0.0022239574            0.0003000000      NO
          RMS step            0.0045485322            0.0020000000      NO
          MAX step            0.0076322445            0.0040000000      NO
          ........................................................
          Max(Bonds)      0.0007      Max(Angles)    0.44
          Max(Dihed)        0.00      Max(Improp)    0.00
          ---------------------------------------------------------------------

The optimization has not yet converged - more geometry cycles are needed


    ---------------------------------------------------------------------------
                         Redundant Internal Coordinates
                            (Angstroem and degrees)

        Definition                    Value    dE/dq     Step     New-Value
    ----------------------------------------------------------------------------
     1. B(H   1,O   0)                0.9738 -0.000894  0.0007    0.9745   
     2. B(H   2,O   0)                0.9738 -0.000891  0.0007    0.9745   
     3. A(H   1,O   0,H   2)          103.02  0.002224   -0.44    102.58   
    ----------------------------------------------------------------------------

         *************************************************************
         *                GEOMETRY OPTIMIZATION CYCLE   3            *
         *************************************************************
---------------------------------
CARTESIAN COORDINATES (ANGSTROEM)
---------------------------------
  O      0.895638    0.001310   -0.039011
  H      0.626593    0.650036    0.636627
  H      1.868409    0.041864    0.003224

----------------------------
CARTESIAN COORDINATES (A.U.)
----------------------------
  NO LB      ZA    FRAG     MASS         X           Y           Z
   0 O     8.0000    0    15.999    1.692510    0.002476   -0.073720
   1 H     1.0000    0     1.008    1.184090    1.228391    1.203051
   2 H     1.0000    0     1.008    3.530781    0.079111    0.006092

--------------------------------
INTERNAL COORDINATES (ANGSTROEM)
--------------------------------
 O      0   0   0     0.000000000000     0.00000000     0.00000000
 H      1   0   0     0.974534405768     0.00000000     0.00000000
 H      1   2   0     0.974531676154   102.58155032     0.00000000

---------------------------
INTERNAL COORDINATES (A.U.)
---------------------------
 O      0   0   0     0.000000000000     0.00000000     0.00000000
 H      1   0   0     1.841603134985     0.00000000     0.00000000
 H      1   2   0     1.841597976763   102.58155032     0.00000000

------------------------------------------------------------------------------
                   ___                                                        
                  /   \      - P O W E R E D   B Y -                         
                 /     \                                                     
                 |  |  |   _    _      __       _____    __    __             
                 |  |  |  | |  | |    /  \     |  _  \  |  |  /  |          
                  \  \/   | |  | |   /    \    | | | |  |  | /  /          
                 / \  \   | |__| |  /  /\  \   | |_| |  |  |/  /          
                |  |  |   |  __  | /  /__\  \  |    /   |      \           
                |  |  |   | |  | | |   __   |  |    \   |  |\   \          
                \     /   | |  | | |  |  |  |  | |\  \  |  | \   \       
                 \___/    |_|  |_| |__|  |__|  |_| \__\ |__|  \__/        
                                                                              
                      - O R C A' S   B I G   F R I E N D -                    
                                      &                                       
                       - I N T E G R A L  F E E D E R -                       
                                                                              
 v1 FN, 2020, v2 2021                                                         
------------------------------------------------------------------------------


Reading SHARK input file water-molecule.SHARKINP.tmp ... ok
----------------------
SHARK INTEGRAL PACKAGE
----------------------

Number of atoms                             ...      3
Number of basis functions                   ...     24
Number of shells                            ...     12
Maximum angular momentum                    ...      2
Integral batch strategy                     ... SHARK/LIBINT Hybrid
RI-J (if used) integral strategy            ... SPLIT-RIJ (Revised 2003 algorithm where possible)
Printlevel                                  ...      1
Contraction scheme used                     ... SEGMENTED contraction
Coulomb Range Separation                    ... NOT USED
Exchange Range Separation                   ... NOT USED
Finite Nucleus Model                        ... NOT USED
Auxiliary Coulomb fitting basis             ... AVAILABLE
   # of basis functions in Aux-J            ...     71
   # of shells in Aux-J                     ...     25
   Maximum angular momentum in Aux-J        ...      4
Auxiliary J/K fitting basis                 ... NOT available
Auxiliary Correlation fitting basis         ... NOT available
Auxiliary 'external' fitting basis          ... NOT available
Integral threshold                          ...     2.500000e-11
Primitive cut-off                           ...     2.500000e-12
Primitive pair pre-selection threshold      ...     2.500000e-12

Calculating pre-screening integrals         ... done (  0.0 sec) Dimension = 12
Organizing shell pair data                  ... done (  0.0 sec)
Shell pair information
Total number of shell pairs                 ...        78
Shell pairs after pre-screening             ...        78
Total number of primitive shell pairs       ...       272
Primitive shell pairs kept                  ...       265
          la=0 lb=0:     28 shell pairs
          la=1 lb=0:     28 shell pairs
          la=1 lb=1:     10 shell pairs
          la=2 lb=0:      7 shell pairs
          la=2 lb=1:      4 shell pairs
          la=2 lb=2:      1 shell pairs

Calculating one electron integrals          ... done (  0.0 sec)
Calculating RI/J V-Matrix + Cholesky decomp.... done (  0.0 sec)
Calculating Nuclear repulsion               ... done (  0.0 sec) ENN=      9.036028318194 Eh

SHARK setup successfully completed in   0.1 seconds

Maximum memory used throughout the entire GTOINT-calculation: 8.7 MB

Diagonalization of the overlap matrix:
Smallest eigenvalue                        ... 3.842e-02
Time for diagonalization                   ...    0.001 sec
Threshold for overlap eigenvalues          ... 1.000e-08
Number of eigenvalues below threshold      ... 0
Time for construction of square roots      ...    0.001 sec
Total time needed                          ...    0.002 sec

-------------------
DFT GRID GENERATION
-------------------

General Integration Accuracy     IntAcc      ... 4.388
Radial Grid Type                 RadialGrid  ... OptM3 with GC (2021)
Angular Grid (max. ang.)         AngularGrid ... 4 (Lebedev-302)
Angular grid pruning method      GridPruning ... 4 (adaptive)
Weight generation scheme         WeightScheme... Becke
Basis function cutoff            BFCut       ... 1.0000e-11
Integration weight cutoff        WCut        ... 1.0000e-14
Angular grids for H and He will be reduced by one unit
Partially contracted basis set               ... off
Rotationally invariant grid construction     ... off

Total number of grid points                  ...    12750
Total number of batches                      ...      201
Average number of points per batch           ...       63
Average number of grid points per atom       ...     4250
Time for grid setup =    0.045 sec

--------------
SCF ITERATIONS
--------------
ITER       Energy         Delta-E        Max-DP      RMS-DP      [F,P]     Damp
               ***  Starting incremental Fock matrix formation  ***
                      *** Initiating the SOSCF procedure ***
                      *** Re-Reading the Fockian *** 
                      *** Removing any level shift *** 
ITER      Energy       Delta-E        Grad      Rot      Max-DP    RMS-DP
  0    -76.36076174 -76.3607617449  0.000654  0.000654  0.001527  0.000166
               *** Restarting incremental Fock matrix formation ***
  1    -76.36076502  -0.0000032752  0.000199  0.000169  0.000415  0.000045
  2    -76.36076508  -0.0000000597  0.000203  0.000143  0.000279  0.000027
  3    -76.36076518  -0.0000001034  0.000042  0.000094  0.000141  0.000014
  4    -76.36076520  -0.0000000129  0.000009  0.000015  0.000018  0.000003
                  ***Gradient check signals convergence***
              ***Rediagonalizing the Fockian in SOSCF/NRSCF***

               *****************************************************
               *                     SUCCESS                       *
               *           SCF CONVERGED AFTER   5 CYCLES          *
               *****************************************************

Total Energy       :          -76.36076520 Eh           -2077.88206 eV
  Last Energy change         ...   -6.0366e-10  Tolerance :   1.0000e-08
  Last MAX-Density change    ...    1.3380e-06  Tolerance :   1.0000e-07
             **** THE GBW FILE WAS UPDATED (water-molecule.gbw) ****
             **** DENSITY water-molecule.scfp WAS UPDATED ****
             **** ENERGY FILE WAS UPDATED (water-molecule.en.tmp) ****
             **** THE GBW FILE WAS UPDATED (water-molecule.gbw) ****
             **** DENSITY water-molecule.scfp WAS UPDATED ****
Total SCF time: 0 days 0 hours 0 min 0 sec 

Maximum memory used throughout the entire SCF-calculation: 7.6 MB

-------------------------   --------------------
FINAL SINGLE POINT ENERGY       -76.360765196752
-------------------------   --------------------

------------------------------------------------------------------------------
                         ORCA SCF GRADIENT CALCULATION
------------------------------------------------------------------------------

Gradient of the Kohn-Sham DFT energy:
Kohn-Sham wavefunction type      ... RKS
Hartree-Fock exchange scaling    ...    0.000
Number of operators              ...    1
Number of atoms                  ...    3
Basis set dimensions             ...   24
Integral neglect threshold       ... 2.5e-11
Integral primitive cutoff        ... 2.5e-12
SHARK Integral package           ... ON

Nuc. rep. gradient       (SHARK) ... done (  0.0 sec)
HCore & Overlap gradient (SHARK) ... done (  0.0 sec)
RI-J gradient            (SHARK) ... done (  0.0 sec)
Exchange-correlation gradient    ... done

------------------
CARTESIAN GRADIENT
------------------

   1   O   :    0.000865691    0.000849626    0.000878916
   2   H   :   -0.000455635   -0.000416728   -0.000428215
   3   H   :   -0.000410055   -0.000432898   -0.000450701

Difference to translation invariance:
           :   -0.0000000000   -0.0000000000   -0.0000000000

Difference to rotation invariance:
           :    0.0000071224   -0.0000036719    0.0000060842

Norm of the cartesian gradient     ...    0.0018349623
RMS gradient                       ...    0.0006116541
MAX gradient                       ...    0.0008789155

-------
TIMINGS
-------

Total SCF gradient time            ...        0.166 sec

One electron gradient       ....       0.002 sec  (  1.2%)
RI-J Coulomb gradient       ....       0.030 sec  ( 18.1%)
XC gradient                 ....       0.092 sec  ( 55.4%)

Maximum memory used throughout the entire SCFGRAD-calculation: 5.3 MB
------------------------------------------------------------------------------
                         ORCA GEOMETRY RELAXATION STEP
------------------------------------------------------------------------------

Reading the OPT-File                    .... done
Getting information on internals        .... done
Copying old internal coords+grads       .... done
Making the new internal coordinates     .... (new redundants).... done
Validating the new internal coordinates .... (new redundants).... done
Calculating the B-matrix                .... done
Calculating the G,G- and P matrices     .... done
Transforming gradient to internals      .... done
Projecting the internal gradient        .... done
Number of atoms                         ....   3
Number of internal coordinates          ....   3
Current Energy                          ....   -76.360765197 Eh
Current gradient norm                   ....     0.001834962 Eh/bohr
Maximum allowed component of the step   ....  0.300
Current trust radius                    ....  0.300
Updating the Hessian (BFGS)             .... done
Forming the augmented Hessian           .... done
Diagonalizing the augmented Hessian     .... done
Last element of RFO vector              ....  0.999969459
Lowest eigenvalues of augmented Hessian:
 -0.000009614  0.151631808  0.465261085
Length of the computed step             ....  0.007815713
The final length of the internal step   ....  0.007815713
Converting the step to cartesian space:
 Initial RMS(Int)=    0.0045124040
Transforming coordinates:
 Iter   0:  RMS(Cart)=    0.0023085434 RMS(Int)=    0.0045119148
 Iter   1:  RMS(Cart)=    0.0000064946 RMS(Int)=    0.0000112417
 Iter   2:  RMS(Cart)=    0.0000000145 RMS(Int)=    0.0000000330
done
Storing new coordinates                 .... done

                                .--------------------.
          ----------------------|Geometry convergence|-------------------------
          Item                value                   Tolerance       Converged
          ---------------------------------------------------------------------
          Energy change      -0.0000145671            0.0000050000      NO
          RMS gradient        0.0007361908            0.0001000000      NO
          MAX gradient        0.0011068416            0.0003000000      NO
          RMS step            0.0045124040            0.0020000000      NO
          MAX step            0.0075668237            0.0040000000      NO
          ........................................................
          Max(Bonds)      0.0007      Max(Angles)    0.43
          Max(Dihed)        0.00      Max(Improp)    0.00
          ---------------------------------------------------------------------

The optimization has not yet converged - more geometry cycles are needed


    ---------------------------------------------------------------------------
                         Redundant Internal Coordinates
                            (Angstroem and degrees)

        Definition                    Value    dE/dq     Step     New-Value
    ----------------------------------------------------------------------------
     1. B(H   1,O   0)                0.9745 -0.000448  0.0007    0.9753   
     2. B(H   2,O   0)                0.9745 -0.000448  0.0007    0.9753   
     3. A(H   1,O   0,H   2)          102.58  0.001107   -0.43    102.15   
    ----------------------------------------------------------------------------

         *************************************************************
         *                GEOMETRY OPTIMIZATION CYCLE   4            *
         *************************************************************
---------------------------------
CARTESIAN COORDINATES (ANGSTROEM)
---------------------------------
  O      0.894355    0.000054   -0.040319
  H      0.628657    0.649968    0.636556
  H      1.867628    0.043188    0.004603

----------------------------
CARTESIAN COORDINATES (A.U.)
----------------------------
  NO LB      ZA    FRAG     MASS         X           Y           Z
   0 O     8.0000    0    15.999    1.690086    0.000101   -0.076193
   1 H     1.0000    0     1.008    1.187989    1.228262    1.202917
   2 H     1.0000    0     1.008    3.529306    0.081614    0.008699

--------------------------------
INTERNAL COORDINATES (ANGSTROEM)
--------------------------------
 O      0   0   0     0.000000000000     0.00000000     0.00000000
 H      1   0   0     0.975266592147     0.00000000     0.00000000
 H      1   2   0     0.975263800139   102.14800325     0.00000000

---------------------------
INTERNAL COORDINATES (A.U.)
---------------------------
 O      0   0   0     0.000000000000     0.00000000     0.00000000
 H      1   0   0     1.842986766720     0.00000000     0.00000000
 H      1   2   0     1.842981490590   102.14800325     0.00000000

------------------------------------------------------------------------------
                   ___                                                        
                  /   \      - P O W E R E D   B Y -                         
                 /     \                                                     
                 |  |  |   _    _      __       _____    __    __             
                 |  |  |  | |  | |    /  \     |  _  \  |  |  /  |          
                  \  \/   | |  | |   /    \    | | | |  |  | /  /          
                 / \  \   | |__| |  /  /\  \   | |_| |  |  |/  /          
                |  |  |   |  __  | /  /__\  \  |    /   |      \           
                |  |  |   | |  | | |   __   |  |    \   |  |\   \          
                \     /   | |  | | |  |  |  |  | |\  \  |  | \   \       
                 \___/    |_|  |_| |__|  |__|  |_| \__\ |__|  \__/        
                                                                              
                      - O R C A' S   B I G   F R I E N D -                    
                                      &                                       
                       - I N T E G R A L  F E E D E R -                       
                                                                              
 v1 FN, 2020, v2 2021                                                         
------------------------------------------------------------------------------


Reading SHARK input file water-molecule.SHARKINP.tmp ... ok
----------------------
SHARK INTEGRAL PACKAGE
----------------------

Number of atoms                             ...      3
Number of basis functions                   ...     24
Number of shells                            ...     12
Maximum angular momentum                    ...      2
Integral batch strategy                     ... SHARK/LIBINT Hybrid
RI-J (if used) integral strategy            ... SPLIT-RIJ (Revised 2003 algorithm where possible)
Printlevel                                  ...      1
Contraction scheme used                     ... SEGMENTED contraction
Coulomb Range Separation                    ... NOT USED
Exchange Range Separation                   ... NOT USED
Finite Nucleus Model                        ... NOT USED
Auxiliary Coulomb fitting basis             ... AVAILABLE
   # of basis functions in Aux-J            ...     71
   # of shells in Aux-J                     ...     25
   Maximum angular momentum in Aux-J        ...      4
Auxiliary J/K fitting basis                 ... NOT available
Auxiliary Correlation fitting basis         ... NOT available
Auxiliary 'external' fitting basis          ... NOT available
Integral threshold                          ...     2.500000e-11
Primitive cut-off                           ...     2.500000e-12
Primitive pair pre-selection threshold      ...     2.500000e-12

Calculating pre-screening integrals         ... done (  0.0 sec) Dimension = 12
Organizing shell pair data                  ... done (  0.0 sec)
Shell pair information
Total number of shell pairs                 ...        78
Shell pairs after pre-screening             ...        78
Total number of primitive shell pairs       ...       272
Primitive shell pairs kept                  ...       265
          la=0 lb=0:     28 shell pairs
          la=1 lb=0:     28 shell pairs
          la=1 lb=1:     10 shell pairs
          la=2 lb=0:      7 shell pairs
          la=2 lb=1:      4 shell pairs
          la=2 lb=2:      1 shell pairs

Calculating one electron integrals          ... done (  0.0 sec)
Calculating RI/J V-Matrix + Cholesky decomp.... done (  0.0 sec)
Calculating Nuclear repulsion               ... done (  0.0 sec) ENN=      9.030304632395 Eh

SHARK setup successfully completed in   0.1 seconds

Maximum memory used throughout the entire GTOINT-calculation: 8.7 MB

Diagonalization of the overlap matrix:
Smallest eigenvalue                        ... 3.838e-02
Time for diagonalization                   ...    0.001 sec
Threshold for overlap eigenvalues          ... 1.000e-08
Number of eigenvalues below threshold      ... 0
Time for construction of square roots      ...    0.001 sec
Total time needed                          ...    0.002 sec

-------------------
DFT GRID GENERATION
-------------------

General Integration Accuracy     IntAcc      ... 4.388
Radial Grid Type                 RadialGrid  ... OptM3 with GC (2021)
Angular Grid (max. ang.)         AngularGrid ... 4 (Lebedev-302)
Angular grid pruning method      GridPruning ... 4 (adaptive)
Weight generation scheme         WeightScheme... Becke
Basis function cutoff            BFCut       ... 1.0000e-11
Integration weight cutoff        WCut        ... 1.0000e-14
Angular grids for H and He will be reduced by one unit
Partially contracted basis set               ... off
Rotationally invariant grid construction     ... off

Total number of grid points                  ...    12748
Total number of batches                      ...      201
Average number of points per batch           ...       63
Average number of grid points per atom       ...     4249
Time for grid setup =    0.043 sec

--------------
SCF ITERATIONS
--------------
ITER       Energy         Delta-E        Max-DP      RMS-DP      [F,P]     Damp
               ***  Starting incremental Fock matrix formation  ***
                      *** Initiating the SOSCF procedure ***
                      *** Re-Reading the Fockian *** 
                      *** Removing any level shift *** 
ITER      Energy       Delta-E        Grad      Rot      Max-DP    RMS-DP
  0    -76.36076658 -76.3607665779  0.000651  0.000651  0.001520  0.000165
               *** Restarting incremental Fock matrix formation ***
  1    -76.36076981  -0.0000032272  0.000200  0.000170  0.000420  0.000045
  2    -76.36076986  -0.0000000540  0.000207  0.000142  0.000279  0.000027
  3    -76.36076997  -0.0000001099  0.000040  0.000092  0.000137  0.000014
  4    -76.36076998  -0.0000000121  0.000009  0.000015  0.000018  0.000003
                  ***Gradient check signals convergence***
              ***Rediagonalizing the Fockian in SOSCF/NRSCF***

               *****************************************************
               *                     SUCCESS                       *
               *           SCF CONVERGED AFTER   5 CYCLES          *
               *****************************************************

Total Energy       :          -76.36076998 Eh           -2077.88219 eV
  Last Energy change         ...   -6.1335e-10  Tolerance :   1.0000e-08
  Last MAX-Density change    ...    1.3037e-06  Tolerance :   1.0000e-07
             **** THE GBW FILE WAS UPDATED (water-molecule.gbw) ****
             **** DENSITY water-molecule.scfp WAS UPDATED ****
             **** ENERGY FILE WAS UPDATED (water-molecule.en.tmp) ****
             **** THE GBW FILE WAS UPDATED (water-molecule.gbw) ****
             **** DENSITY water-molecule.scfp WAS UPDATED ****
Total SCF time: 0 days 0 hours 0 min 0 sec 

Maximum memory used throughout the entire SCF-calculation: 7.6 MB

-------------------------   --------------------
FINAL SINGLE POINT ENERGY       -76.360769981613
-------------------------   --------------------

------------------------------------------------------------------------------
                         ORCA SCF GRADIENT CALCULATION
------------------------------------------------------------------------------

Gradient of the Kohn-Sham DFT energy:
Kohn-Sham wavefunction type      ... RKS
Hartree-Fock exchange scaling    ...    0.000
Number of operators              ...    1
Number of atoms                  ...    3
Basis set dimensions             ...   24
Integral neglect threshold       ... 2.5e-11
Integral primitive cutoff        ... 2.5e-12
SHARK Integral package           ... ON

Nuc. rep. gradient       (SHARK) ... done (  0.0 sec)
HCore & Overlap gradient (SHARK) ... done (  0.0 sec)
RI-J gradient            (SHARK) ... done (  0.0 sec)
Exchange-correlation gradient    ... done

------------------
CARTESIAN GRADIENT
------------------

   1   O   :   -0.000000542    0.000001623   -0.000004485
   2   H   :    0.000004857   -0.000006050   -0.000000305
   3   H   :   -0.000004315    0.000004427    0.000004790

Difference to translation invariance:
           :    0.0000000000   -0.0000000000   -0.0000000000

Difference to rotation invariance:
           :    0.0000073778   -0.0000031178    0.0000055657

Norm of the cartesian gradient     ...    0.0000120202
RMS gradient                       ...    0.0000040067
MAX gradient                       ...    0.0000060495

-------
TIMINGS
-------

Total SCF gradient time            ...        0.166 sec

One electron gradient       ....       0.003 sec  (  1.8%)
RI-J Coulomb gradient       ....       0.031 sec  ( 18.7%)
XC gradient                 ....       0.096 sec  ( 57.8%)

Maximum memory used throughout the entire SCFGRAD-calculation: 5.3 MB
------------------------------------------------------------------------------
                         ORCA GEOMETRY RELAXATION STEP
------------------------------------------------------------------------------

Reading the OPT-File                    .... done
Getting information on internals        .... done
Copying old internal coords+grads       .... done
Making the new internal coordinates     .... (new redundants).... done
Validating the new internal coordinates .... (new redundants).... done
Calculating the B-matrix                .... done
Calculating the G,G- and P matrices     .... done
Transforming gradient to internals      .... done
Projecting the internal gradient        .... done
Number of atoms                         ....   3
Number of internal coordinates          ....   3
Current Energy                          ....   -76.360769982 Eh
Current gradient norm                   ....     0.000012020 Eh/bohr
Maximum allowed component of the step   ....  0.300
Current trust radius                    ....  0.300
Updating the Hessian (BFGS)             .... done
Forming the augmented Hessian           .... done
Diagonalizing the augmented Hessian     .... done
Last element of RFO vector              ....  0.999999998
[...]
                |  |  |   | |  | | |   __   |  |    \   |  |\   \          
                \     /   | |  | | |  |  |  |  | |\  \  |  | \   \       
                 \___/    |_|  |_| |__|  |__|  |_| \__\ |__|  \__/        
                                                                              
                      - O R C A' S   B I G   F R I E N D -                    
                                      &                                       
                       - I N T E G R A L  F E E D E R -                       
                                                                              
 v1 FN, 2020, v2 2021                                                         
------------------------------------------------------------------------------


Reading SHARK input file water-molecule.SHARKINP.tmp ... ok
----------------------
SHARK INTEGRAL PACKAGE
----------------------

Number of atoms                             ...      3
Number of basis functions                   ...     24
Number of shells                            ...     12
Maximum angular momentum                    ...      2
Integral batch strategy                     ... SHARK/LIBINT Hybrid
RI-J (if used) integral strategy            ... SPLIT-RIJ (Revised 2003 algorithm where possible)
Printlevel                                  ...      1
Contraction scheme used                     ... SEGMENTED contraction
Coulomb Range Separation                    ... NOT USED
Exchange Range Separation                   ... NOT USED
Finite Nucleus Model                        ... NOT USED
Auxiliary Coulomb fitting basis             ... AVAILABLE
   # of basis functions in Aux-J            ...     71
   # of shells in Aux-J                     ...     25
   Maximum angular momentum in Aux-J        ...      4
Auxiliary J/K fitting basis                 ... NOT available
Auxiliary Correlation fitting basis         ... NOT available
Auxiliary 'external' fitting basis          ... NOT available
Integral threshold                          ...     2.500000e-11
Primitive cut-off                           ...     2.500000e-12
Primitive pair pre-selection threshold      ...     2.500000e-12

Calculating pre-screening integrals         ... done (  0.0 sec) Dimension = 12
Organizing shell pair data                  ... done (  0.0 sec)
Shell pair information
Total number of shell pairs                 ...        78
Shell pairs after pre-screening             ...        78
Total number of primitive shell pairs       ...       272
Primitive shell pairs kept                  ...       265
          la=0 lb=0:     28 shell pairs
          la=1 lb=0:     28 shell pairs
          la=1 lb=1:     10 shell pairs
          la=2 lb=0:      7 shell pairs
          la=2 lb=1:      4 shell pairs
          la=2 lb=2:      1 shell pairs

Calculating one electron integrals          ... done (  0.0 sec)
Calculating RI/J V-Matrix + Cholesky decomp.... done (  0.0 sec)
Calculating Nuclear repulsion               ... done (  0.0 sec) ENN=      9.030264117564 Eh

SHARK setup successfully completed in   0.0 seconds

Maximum memory used throughout the entire GTOINT-calculation: 8.7 MB
-------------------------------------------------------------------------------
                                 ORCA SCF
-------------------------------------------------------------------------------

------------
SCF SETTINGS
------------
Hamiltonian:
 Density Functional     Method          .... DFT(GTOs)
 Exchange Functional    Exchange        .... B88
   X-Alpha parameter    XAlpha          ....  0.666667
   Becke's b parameter  XBeta           ....  0.004200
 Correlation Functional Correlation     .... P86
 LDA part of GGA corr.  LDAOpt          .... PW91-LDA
 Gradients option       PostSCFGGA      .... off
   Density functional embedding theory  .... OFF
   NL short-range parameter             ....  4.400000
 RI-approximation to the Coulomb term is turned on
   Number of AuxJ basis functions       .... 71


General Settings:
 Integral files         IntName         .... water-molecule
 Hartree-Fock type      HFTyp           .... RHF
 Total Charge           Charge          ....    0
 Multiplicity           Mult            ....    1
 Number of Electrons    NEL             ....   10
 Basis Dimension        Dim             ....   24
 Nuclear Repulsion      ENuc            ....      9.0302641176 Eh

Convergence Acceleration:
 DIIS                   CNVDIIS         .... on
   Start iteration      DIISMaxIt       ....    12
   Startup error        DIISStart       ....  0.200000
   # of expansion vecs  DIISMaxEq       ....     5
   Bias factor          DIISBfac        ....   1.050
   Max. coefficient     DIISMaxC        ....  10.000
 Trust-Rad. Augm. Hess. CNVTRAH         .... auto
   Auto Start mean grad. ratio tolernc. ....  1.125000
   Auto Start start iteration           ....     1
   Auto Start num. interpolation iter.  ....    10
   Max. Number of Micro iterations      ....    16
   Max. Number of Macro iterations      .... Maxiter - #DIIS iter
   Number of Davidson start vectors     ....     2
   Converg. threshold I  (grad. norm)   ....   1.000e-05
   Converg. threshold II (energy diff.) ....   1.000e-08
   Grad. Scal. Fac. for Micro threshold ....   0.100
   Minimum threshold for Micro iter.    ....   0.010
   NR start threshold (gradient norm)   ....   0.001
   Initial trust radius                 ....   0.400
   Minimum AH scaling param. (alpha)    ....   1.000
   Maximum AH scaling param. (alpha)    .... 1000.000
   Orbital update algorithm             .... Taylor
   White noise on init. David. guess    .... on
   Maximum white noise                  ....   0.010
   Quad. conv. algorithm                .... NR
 SOSCF                  CNVSOSCF        .... on
   Start iteration      SOSCFMaxIt      ....   150
   Startup grad/error   SOSCFStart      ....  0.003300
 Level Shifting         CNVShift        .... on
   Level shift para.    LevelShift      ....    0.2500
   Turn off err/grad.   ShiftErr        ....    0.0010
 Zerner damping         CNVZerner       .... off
 Static damping         CNVDamp         .... on
   Fraction old density DampFac         ....    0.7000
   Max. Damping (<1)    DampMax         ....    0.9800
   Min. Damping (>=0)   DampMin         ....    0.0000
   Turn off err/grad.   DampErr         ....    0.1000
 Fernandez-Rico         CNVRico         .... off

SCF Procedure:
 Maximum # iterations   MaxIter         ....   125
 SCF integral mode      SCFMode         .... Direct
   Integral package                     .... SHARK and LIBINT hybrid scheme
 Reset frequency        DirectResetFreq ....    20
 Integral Threshold     Thresh          ....  2.500e-11 Eh
 Primitive CutOff       TCut            ....  2.500e-12 Eh

Convergence Tolerance:
 Convergence Check Mode ConvCheckMode   .... Total+1el-Energy
 Convergence forced     ConvForced      .... 0
 Energy Change          TolE            ....  1.000e-08 Eh
 1-El. energy change                    ....  1.000e-05 Eh
 Orbital Gradient       TolG            ....  1.000e-05
 Orbital Rotation angle TolX            ....  1.000e-05
 DIIS Error             TolErr          ....  5.000e-07


Diagonalization of the overlap matrix:
Smallest eigenvalue                        ... 3.838e-02
Time for diagonalization                   ...    0.001 sec
Threshold for overlap eigenvalues          ... 1.000e-08
Number of eigenvalues below threshold      ... 0
Time for construction of square roots      ...    0.001 sec
Total time needed                          ...    0.002 sec

---------------------
INITIAL GUESS: MOREAD
---------------------
Guess MOs are being read from file: water-molecule.gbw
Input Geometry matches current geometry (good)
Input basis set matches current basis set (good)
MOs were renormalized
MOs were reorthogonalized (Cholesky)
                      ------------------
                      INITIAL GUESS DONE (   0.0 sec)
                      ------------------
-------------------
DFT GRID GENERATION
-------------------

General Integration Accuracy     IntAcc      ... 4.388
Radial Grid Type                 RadialGrid  ... OptM3 with GC (2021)
Angular Grid (max. ang.)         AngularGrid ... 4 (Lebedev-302)
Angular grid pruning method      GridPruning ... 4 (adaptive)
Weight generation scheme         WeightScheme... Becke
Basis function cutoff            BFCut       ... 1.0000e-11
Integration weight cutoff        WCut        ... 1.0000e-14
Angular grids for H and He will be reduced by one unit
Partially contracted basis set               ... off
Rotationally invariant grid construction     ... off

Total number of grid points                  ...    12748
Total number of batches                      ...      201
Average number of points per batch           ...       63
Average number of grid points per atom       ...     4249
Time for grid setup =    0.043 sec

--------------
SCF ITERATIONS
--------------
ITER       Energy         Delta-E        Max-DP      RMS-DP      [F,P]     Damp
               ***  Starting incremental Fock matrix formation  ***
                      *** Initiating the SOSCF procedure ***
                      *** Re-Reading the Fockian *** 
                      *** Removing any level shift *** 
ITER      Energy       Delta-E        Grad      Rot      Max-DP    RMS-DP
  0    -76.36076998 -76.3607699817  0.000005  0.000005  0.000011  0.000001
               *** Restarting incremental Fock matrix formation ***
                  ***Gradient check signals convergence***
              ***Rediagonalizing the Fockian in SOSCF/NRSCF***

               *****************************************************
               *                     SUCCESS                       *
               *           SCF CONVERGED AFTER   1 CYCLES          *
               *****************************************************


----------------
TOTAL SCF ENERGY
----------------

Total Energy       :          -76.36076998 Eh           -2077.88219 eV

Components:
Nuclear Repulsion  :            9.03026412 Eh             245.72598 eV
Electronic Energy  :          -85.39103410 Eh           -2323.60817 eV
One Electron Energy:         -122.78618748 Eh           -3341.18202 eV
Two Electron Energy:           37.39515338 Eh            1017.57386 eV

Virial components:
Potential Energy   :         -152.14445312 Eh           -4140.06105 eV
Kinetic Energy     :           75.78368314 Eh            2062.17886 eV
Virial Ratio       :            2.00761492


DFT components:
N(Alpha)           :        5.000000268230 electrons
N(Beta)            :        5.000000268230 electrons
N(Total)           :       10.000000536461 electrons
E(X)               :       -8.977925817024 Eh       
E(C)               :       -0.363671245614 Eh       
E(XC)              :       -9.341597062638 Eh       
DFET-embed. en.    :        0.000000000000 Eh       

---------------
SCF CONVERGENCE
---------------

  Last Energy change         ...   -1.7428e-10  Tolerance :   1.0000e-08
  Last MAX-Density change    ...    4.0155e-06  Tolerance :   1.0000e-07
  Last RMS-Density change    ...    4.0100e-07  Tolerance :   5.0000e-09
  Last Orbital Gradient      ...    1.2894e-06  Tolerance :   1.0000e-05
  Last Orbital Rotation      ...    1.6658e-06  Tolerance :   1.0000e-05

             **** THE GBW FILE WAS UPDATED (water-molecule.gbw) ****
             **** DENSITY water-molecule.scfp WAS UPDATED ****
             **** ENERGY FILE WAS UPDATED (water-molecule.en.tmp) ****
             **** THE GBW FILE WAS UPDATED (water-molecule.gbw) ****
             **** DENSITY water-molecule.scfp WAS UPDATED ****
----------------
ORBITAL ENERGIES
----------------

  NO   OCC          E(Eh)            E(eV) 
   0   2.0000     -18.761610      -510.5294 
   1   2.0000      -0.890672       -24.2364 
   2   2.0000      -0.455066       -12.3830 
   3   2.0000      -0.313341        -8.5264 
   4   2.0000      -0.232870        -6.3367 
   5   0.0000       0.029413         0.8004 
   6   0.0000       0.105699         2.8762 
   7   0.0000       0.507353        13.8058 
   8   0.0000       0.571158        15.5420 
   9   0.0000       0.862196        23.4615 
  10   0.0000       0.862675        23.4746 
  11   0.0000       0.955066        25.9887 
  12   0.0000       1.041551        28.3420 
  13   0.0000       1.286481        35.0069 
  14   0.0000       1.326494        36.0957 
  15   0.0000       1.473721        40.1020 
  16   0.0000       1.717434        46.7338 
  17   0.0000       2.100903        57.1685 
  18   0.0000       2.151217        58.5376 
  19   0.0000       2.866549        78.0028 
  20   0.0000       2.891566        78.6835 
  21   0.0000       3.079872        83.8076 
  22   0.0000       3.375804        91.8603 
  23   0.0000       3.720118       101.2295 

                    ********************************
                    * MULLIKEN POPULATION ANALYSIS *
                    ********************************

-----------------------
MULLIKEN ATOMIC CHARGES
-----------------------
   0 O :   -0.298601
   1 H :    0.149301
   2 H :    0.149299
Sum of atomic charges:    0.0000000

--------------------------------
MULLIKEN REDUCED ORBITAL CHARGES
--------------------------------
  0 O s       :     3.702889  s :     3.702889
      pz      :     1.651323  p :     4.585287
      px      :     1.258664
      py      :     1.675301
      dz2     :     0.001899  d :     0.010425
      dxz     :     0.000802
      dyz     :     0.003216
      dx2y2   :     0.003735
      dxy     :     0.000772
  1 H s       :     0.781454  s :     0.781454
      pz      :     0.025770  p :     0.069245
      px      :     0.018143
      py      :     0.025332
  2 H s       :     0.781455  s :     0.781455
      pz      :     0.018194  p :     0.069246
      px      :     0.032703
      py      :     0.018348


                     *******************************
                     * LOEWDIN POPULATION ANALYSIS *
                     *******************************

----------------------
LOEWDIN ATOMIC CHARGES
----------------------
   0 O :   -0.155082
   1 H :    0.077542
   2 H :    0.077540

-------------------------------
LOEWDIN REDUCED ORBITAL CHARGES
-------------------------------
  0 O s       :     3.454920  s :     3.454920
      pz      :     1.661686  p :     4.680927
      px      :     1.339419
      py      :     1.679821
      dz2     :     0.003047  d :     0.019235
      dxz     :     0.000929
      dyz     :     0.006367
      dx2y2   :     0.008025
      dxy     :     0.000867
  1 H s       :     0.750592  s :     0.750592
      pz      :     0.070439  p :     0.171866
      px      :     0.032364
      py      :     0.069063
  2 H s       :     0.750593  s :     0.750593
      pz      :     0.042712  p :     0.171867
      px      :     0.085654
      py      :     0.043501


                      *****************************
                      * MAYER POPULATION ANALYSIS *
                      *****************************

  NA   - Mulliken gross atomic population
  ZA   - Total nuclear charge
  QA   - Mulliken gross atomic charge
  VA   - Mayer's total valence
  BVA  - Mayer's bonded valence
  FA   - Mayer's free valence

  ATOM       NA         ZA         QA         VA         BVA        FA
  0 O      8.2986     8.0000    -0.2986     2.0158     2.0158     0.0000
  1 H      0.8507     1.0000     0.1493     1.0141     1.0141     0.0000
  2 H      0.8507     1.0000     0.1493     1.0141     1.0141     0.0000

  Mayer bond orders larger than 0.100000
B(  0-O ,  1-H ) :   1.0079 B(  0-O ,  2-H ) :   1.0079 

-------
TIMINGS
-------

Total SCF time: 0 days 0 hours 0 min 0 sec 

Total time                  ....       0.262 sec
Sum of individual times     ....       0.145 sec  ( 55.3%)

Fock matrix formation       ....       0.053 sec  ( 20.2%)
  Split-RI-J                ....       0.004 sec  (  7.5% of F)
  XC integration            ....       0.048 sec  ( 90.6% of F)
    Basis function eval.    ....       0.014 sec  ( 29.2% of XC)
    Density eval.           ....       0.011 sec  ( 22.9% of XC)
    XC-Functional eval.     ....       0.008 sec  ( 16.7% of XC)
    XC-Potential eval.      ....       0.007 sec  ( 14.6% of XC)
Diagonalization             ....       0.000 sec  (  0.0%)
Density matrix formation    ....       0.000 sec  (  0.0%)
Population analysis         ....       0.040 sec  ( 15.3%)
Initial guess               ....       0.001 sec  (  0.4%)
Orbital Transformation      ....       0.000 sec  (  0.0%)
Orbital Orthonormalization  ....       0.000 sec  (  0.0%)
DIIS solution               ....       0.000 sec  (  0.0%)
SOSCF solution              ....       0.008 sec  (  3.1%)
Grid generation             ....       0.043 sec  ( 16.4%)

Maximum memory used throughout the entire SCF-calculation: 7.6 MB

-------------------------   --------------------
FINAL SINGLE POINT ENERGY       -76.360769981911
-------------------------   --------------------

                                *** OPTIMIZATION RUN DONE ***

                            ***************************************
                            *     ORCA property calculations      *
                            ***************************************

                                    ---------------------
                                    Active property flags
                                    ---------------------
   (+) Dipole Moment


------------------------------------------------------------------------------
                       ORCA ELECTRIC PROPERTIES CALCULATION
------------------------------------------------------------------------------

Dipole Moment Calculation                       ... on
Quadrupole Moment Calculation                   ... off
Polarizability Calculation                      ... off
GBWName                                         ... water-molecule.gbw
Electron density                                ... water-molecule.scfp
The origin for moment calculation is the CENTER OF MASS  = ( 1.764915,  0.073394  0.000140)

-------------
DIPOLE MOMENT
-------------
                                X             Y             Z
Electronic contribution:     -0.13802      -0.13518      -0.14079
Nuclear contribution   :      0.58894       0.57685       0.60078
                        -----------------------------------------
Total Dipole Moment    :      0.45092       0.44166       0.45999
                        -----------------------------------------
Magnitude (a.u.)       :      0.78102
Magnitude (Debye)      :      1.98518



--------------------
Rotational spectrum 
--------------------
 
Rotational constants in cm-1:    25.076896    14.525302     9.197709 
Rotational constants in MHz : 751786.441656 435457.591613 275740.373602 

 Dipole components along the rotational axes: 
x,y,z [a.u.] :    -0.000005     0.781016    -0.000000 
x,y,z [Debye]:    -0.000013     1.985184    -0.000001 

 

Timings for individual modules:

Sum of individual times         ...        5.548 sec (=   0.092 min)
GTO integral calculation        ...        0.527 sec (=   0.009 min)   9.5 %
SCF iterations                  ...        2.166 sec (=   0.036 min)  39.0 %
SCF Gradient evaluation         ...        0.894 sec (=   0.015 min)  16.1 %
Geometry relaxation             ...        1.961 sec (=   0.033 min)  35.3 %
                             ****ORCA TERMINATED NORMALLY****
TOTAL RUN TIME: 0 days 0 hours 0 minutes 6 seconds 997 msec
